PSF EXT CMAP XPLOR

         3 !NTITLE
* GENERATED BY CHARMM-GUI (HTTP://WWW.CHARMM-GUI.ORG) V3.7 ON OCT, 25. 2022. JOB
* GET A DIFFERENT CONFORMATION FOR LIPIDS PENETRATING PROTEIN / CHOL            
*  DATE:    10/25/22     16:31:25      CREATED BY USER: apache                  

      8576 !NATOM
         1 MEMB     1        POPC     N        NTL     -0.600000       14.0070           0
         2 MEMB     1        POPC     C12      CTL2    -0.100000       12.0110           0
         3 MEMB     1        POPC     H12A     HL       0.250000       1.00800           0
         4 MEMB     1        POPC     H12B     HL       0.250000       1.00800           0
         5 MEMB     1        POPC     C13      CTL5    -0.350000       12.0110           0
         6 MEMB     1        POPC     H13A     HL       0.250000       1.00800           0
         7 MEMB     1        POPC     H13B     HL       0.250000       1.00800           0
         8 MEMB     1        POPC     H13C     HL       0.250000       1.00800           0
         9 MEMB     1        POPC     C14      CTL5    -0.350000       12.0110           0
        10 MEMB     1        POPC     H14A     HL       0.250000       1.00800           0
        11 MEMB     1        POPC     H14B     HL       0.250000       1.00800           0
        12 MEMB     1        POPC     H14C     HL       0.250000       1.00800           0
        13 MEMB     1        POPC     C15      CTL5    -0.350000       12.0110           0
        14 MEMB     1        POPC     H15A     HL       0.250000       1.00800           0
        15 MEMB     1        POPC     H15B     HL       0.250000       1.00800           0
        16 MEMB     1        POPC     H15C     HL       0.250000       1.00800           0
        17 MEMB     1        POPC     C11      CTL2    -0.800000E-01   12.0110           0
        18 MEMB     1        POPC     H11A     HAL2     0.900000E-01   1.00800           0
        19 MEMB     1        POPC     H11B     HAL2     0.900000E-01   1.00800           0
        20 MEMB     1        POPC     P        PL        1.50000       30.9740           0
        21 MEMB     1        POPC     O13      O2L     -0.780000       15.9994           0
        22 MEMB     1        POPC     O14      O2L     -0.780000       15.9994           0
        23 MEMB     1        POPC     O12      OSLP    -0.570000       15.9994           0
        24 MEMB     1        POPC     O11      OSLP    -0.570000       15.9994           0
        25 MEMB     1        POPC     C1       CTL2    -0.800000E-01   12.0110           0
        26 MEMB     1        POPC     HA       HAL2     0.900000E-01   1.00800           0
        27 MEMB     1        POPC     HB       HAL2     0.900000E-01   1.00800           0
        28 MEMB     1        POPC     C2       CTL1     0.170000       12.0110           0
        29 MEMB     1        POPC     HS       HAL1     0.900000E-01   1.00800           0
        30 MEMB     1        POPC     O21      OSL     -0.490000       15.9994           0
        31 MEMB     1        POPC     C21      CL       0.900000       12.0110           0
        32 MEMB     1        POPC     O22      OBL     -0.630000       15.9994           0
        33 MEMB     1        POPC     C22      CTL2    -0.220000       12.0110           0
        34 MEMB     1        POPC     H2R      HAL2     0.900000E-01   1.00800           0
        35 MEMB     1        POPC     H2S      HAL2     0.900000E-01   1.00800           0
        36 MEMB     1        POPC     C3       CTL2     0.800000E-01   12.0110           0
        37 MEMB     1        POPC     HX       HAL2     0.900000E-01   1.00800           0
        38 MEMB     1        POPC     HY       HAL2     0.900000E-01   1.00800           0
        39 MEMB     1        POPC     O31      OSL     -0.490000       15.9994           0
        40 MEMB     1        POPC     C31      CL       0.900000       12.0110           0
        41 MEMB     1        POPC     O32      OBL     -0.630000       15.9994           0
        42 MEMB     1        POPC     C32      CTL2    -0.220000       12.0110           0
        43 MEMB     1        POPC     H2X      HAL2     0.900000E-01   1.00800           0
        44 MEMB     1        POPC     H2Y      HAL2     0.900000E-01   1.00800           0
        45 MEMB     1        POPC     C23      CTL2    -0.180000       12.0110           0
        46 MEMB     1        POPC     H3R      HAL2     0.900000E-01   1.00800           0
        47 MEMB     1        POPC     H3S      HAL2     0.900000E-01   1.00800           0
        48 MEMB     1        POPC     C24      CTL2    -0.180000       12.0110           0
        49 MEMB     1        POPC     H4R      HAL2     0.900000E-01   1.00800           0
        50 MEMB     1        POPC     H4S      HAL2     0.900000E-01   1.00800           0
        51 MEMB     1        POPC     C25      CTL2    -0.180000       12.0110           0
        52 MEMB     1        POPC     H5R      HAL2     0.900000E-01   1.00800           0
        53 MEMB     1        POPC     H5S      HAL2     0.900000E-01   1.00800           0
        54 MEMB     1        POPC     C26      CTL2    -0.180000       12.0110           0
        55 MEMB     1        POPC     H6R      HAL2     0.900000E-01   1.00800           0
        56 MEMB     1        POPC     H6S      HAL2     0.900000E-01   1.00800           0
        57 MEMB     1        POPC     C27      CTL2    -0.180000       12.0110           0
        58 MEMB     1        POPC     H7R      HAL2     0.900000E-01   1.00800           0
        59 MEMB     1        POPC     H7S      HAL2     0.900000E-01   1.00800           0
        60 MEMB     1        POPC     C28      CTL2    -0.180000       12.0110           0
        61 MEMB     1        POPC     H8R      HAL2     0.900000E-01   1.00800           0
        62 MEMB     1        POPC     H8S      HAL2     0.900000E-01   1.00800           0
        63 MEMB     1        POPC     C29      CEL1    -0.150000       12.0110           0
        64 MEMB     1        POPC     H91      HEL1     0.150000       1.00800           0
        65 MEMB     1        POPC     C210     CEL1    -0.150000       12.0110           0
        66 MEMB     1        POPC     H101     HEL1     0.150000       1.00800           0
        67 MEMB     1        POPC     C211     CTL2    -0.180000       12.0110           0
        68 MEMB     1        POPC     H11R     HAL2     0.900000E-01   1.00800           0
        69 MEMB     1        POPC     H11S     HAL2     0.900000E-01   1.00800           0
        70 MEMB     1        POPC     C212     CTL2    -0.180000       12.0110           0
        71 MEMB     1        POPC     H12R     HAL2     0.900000E-01   1.00800           0
        72 MEMB     1        POPC     H12S     HAL2     0.900000E-01   1.00800           0
        73 MEMB     1        POPC     C213     CTL2    -0.180000       12.0110           0
        74 MEMB     1        POPC     H13R     HAL2     0.900000E-01   1.00800           0
        75 MEMB     1        POPC     H13S     HAL2     0.900000E-01   1.00800           0
        76 MEMB     1        POPC     C214     CTL2    -0.180000       12.0110           0
        77 MEMB     1        POPC     H14R     HAL2     0.900000E-01   1.00800           0
        78 MEMB     1        POPC     H14S     HAL2     0.900000E-01   1.00800           0
        79 MEMB     1        POPC     C215     CTL2    -0.180000       12.0110           0
        80 MEMB     1        POPC     H15R     HAL2     0.900000E-01   1.00800           0
        81 MEMB     1        POPC     H15S     HAL2     0.900000E-01   1.00800           0
        82 MEMB     1        POPC     C216     CTL2    -0.180000       12.0110           0
        83 MEMB     1        POPC     H16R     HAL2     0.900000E-01   1.00800           0
        84 MEMB     1        POPC     H16S     HAL2     0.900000E-01   1.00800           0
        85 MEMB     1        POPC     C217     CTL2    -0.180000       12.0110           0
        86 MEMB     1        POPC     H17R     HAL2     0.900000E-01   1.00800           0
        87 MEMB     1        POPC     H17S     HAL2     0.900000E-01   1.00800           0
        88 MEMB     1        POPC     C218     CTL3    -0.270000       12.0110           0
        89 MEMB     1        POPC     H18R     HAL3     0.900000E-01   1.00800           0
        90 MEMB     1        POPC     H18S     HAL3     0.900000E-01   1.00800           0
        91 MEMB     1        POPC     H18T     HAL3     0.900000E-01   1.00800           0
        92 MEMB     1        POPC     C33      CTL2    -0.180000       12.0110           0
        93 MEMB     1        POPC     H3X      HAL2     0.900000E-01   1.00800           0
        94 MEMB     1        POPC     H3Y      HAL2     0.900000E-01   1.00800           0
        95 MEMB     1        POPC     C34      CTL2    -0.180000       12.0110           0
        96 MEMB     1        POPC     H4X      HAL2     0.900000E-01   1.00800           0
        97 MEMB     1        POPC     H4Y      HAL2     0.900000E-01   1.00800           0
        98 MEMB     1        POPC     C35      CTL2    -0.180000       12.0110           0
        99 MEMB     1        POPC     H5X      HAL2     0.900000E-01   1.00800           0
       100 MEMB     1        POPC     H5Y      HAL2     0.900000E-01   1.00800           0
       101 MEMB     1        POPC     C36      CTL2    -0.180000       12.0110           0
       102 MEMB     1        POPC     H6X      HAL2     0.900000E-01   1.00800           0
       103 MEMB     1        POPC     H6Y      HAL2     0.900000E-01   1.00800           0
       104 MEMB     1        POPC     C37      CTL2    -0.180000       12.0110           0
       105 MEMB     1        POPC     H7X      HAL2     0.900000E-01   1.00800           0
       106 MEMB     1        POPC     H7Y      HAL2     0.900000E-01   1.00800           0
       107 MEMB     1        POPC     C38      CTL2    -0.180000       12.0110           0
       108 MEMB     1        POPC     H8X      HAL2     0.900000E-01   1.00800           0
       109 MEMB     1        POPC     H8Y      HAL2     0.900000E-01   1.00800           0
       110 MEMB     1        POPC     C39      CTL2    -0.180000       12.0110           0
       111 MEMB     1        POPC     H9X      HAL2     0.900000E-01   1.00800           0
       112 MEMB     1        POPC     H9Y      HAL2     0.900000E-01   1.00800           0
       113 MEMB     1        POPC     C310     CTL2    -0.180000       12.0110           0
       114 MEMB     1        POPC     H10X     HAL2     0.900000E-01   1.00800           0
       115 MEMB     1        POPC     H10Y     HAL2     0.900000E-01   1.00800           0
       116 MEMB     1        POPC     C311     CTL2    -0.180000       12.0110           0
       117 MEMB     1        POPC     H11X     HAL2     0.900000E-01   1.00800           0
       118 MEMB     1        POPC     H11Y     HAL2     0.900000E-01   1.00800           0
       119 MEMB     1        POPC     C312     CTL2    -0.180000       12.0110           0
       120 MEMB     1        POPC     H12X     HAL2     0.900000E-01   1.00800           0
       121 MEMB     1        POPC     H12Y     HAL2     0.900000E-01   1.00800           0
       122 MEMB     1        POPC     C313     CTL2    -0.180000       12.0110           0
       123 MEMB     1        POPC     H13X     HAL2     0.900000E-01   1.00800           0
       124 MEMB     1        POPC     H13Y     HAL2     0.900000E-01   1.00800           0
       125 MEMB     1        POPC     C314     CTL2    -0.180000       12.0110           0
       126 MEMB     1        POPC     H14X     HAL2     0.900000E-01   1.00800           0
       127 MEMB     1        POPC     H14Y     HAL2     0.900000E-01   1.00800           0
       128 MEMB     1        POPC     C315     CTL2    -0.180000       12.0110           0
       129 MEMB     1        POPC     H15X     HAL2     0.900000E-01   1.00800           0
       130 MEMB     1        POPC     H15Y     HAL2     0.900000E-01   1.00800           0
       131 MEMB     1        POPC     C316     CTL3    -0.270000       12.0110           0
       132 MEMB     1        POPC     H16X     HAL3     0.900000E-01   1.00800           0
       133 MEMB     1        POPC     H16Y     HAL3     0.900000E-01   1.00800           0
       134 MEMB     1        POPC     H16Z     HAL3     0.900000E-01   1.00800           0
       135 MEMB     2        POPC     N        NTL     -0.600000       14.0070           0
       136 MEMB     2        POPC     C12      CTL2    -0.100000       12.0110           0
       137 MEMB     2        POPC     H12A     HL       0.250000       1.00800           0
       138 MEMB     2        POPC     H12B     HL       0.250000       1.00800           0
       139 MEMB     2        POPC     C13      CTL5    -0.350000       12.0110           0
       140 MEMB     2        POPC     H13A     HL       0.250000       1.00800           0
       141 MEMB     2        POPC     H13B     HL       0.250000       1.00800           0
       142 MEMB     2        POPC     H13C     HL       0.250000       1.00800           0
       143 MEMB     2        POPC     C14      CTL5    -0.350000       12.0110           0
       144 MEMB     2        POPC     H14A     HL       0.250000       1.00800           0
       145 MEMB     2        POPC     H14B     HL       0.250000       1.00800           0
       146 MEMB     2        POPC     H14C     HL       0.250000       1.00800           0
       147 MEMB     2        POPC     C15      CTL5    -0.350000       12.0110           0
       148 MEMB     2        POPC     H15A     HL       0.250000       1.00800           0
       149 MEMB     2        POPC     H15B     HL       0.250000       1.00800           0
       150 MEMB     2        POPC     H15C     HL       0.250000       1.00800           0
       151 MEMB     2        POPC     C11      CTL2    -0.800000E-01   12.0110           0
       152 MEMB     2        POPC     H11A     HAL2     0.900000E-01   1.00800           0
       153 MEMB     2        POPC     H11B     HAL2     0.900000E-01   1.00800           0
       154 MEMB     2        POPC     P        PL        1.50000       30.9740           0
       155 MEMB     2        POPC     O13      O2L     -0.780000       15.9994           0
       156 MEMB     2        POPC     O14      O2L     -0.780000       15.9994           0
       157 MEMB     2        POPC     O12      OSLP    -0.570000       15.9994           0
       158 MEMB     2        POPC     O11      OSLP    -0.570000       15.9994           0
       159 MEMB     2        POPC     C1       CTL2    -0.800000E-01   12.0110           0
       160 MEMB     2        POPC     HA       HAL2     0.900000E-01   1.00800           0
       161 MEMB     2        POPC     HB       HAL2     0.900000E-01   1.00800           0
       162 MEMB     2        POPC     C2       CTL1     0.170000       12.0110           0
       163 MEMB     2        POPC     HS       HAL1     0.900000E-01   1.00800           0
       164 MEMB     2        POPC     O21      OSL     -0.490000       15.9994           0
       165 MEMB     2        POPC     C21      CL       0.900000       12.0110           0
       166 MEMB     2        POPC     O22      OBL     -0.630000       15.9994           0
       167 MEMB     2        POPC     C22      CTL2    -0.220000       12.0110           0
       168 MEMB     2        POPC     H2R      HAL2     0.900000E-01   1.00800           0
       169 MEMB     2        POPC     H2S      HAL2     0.900000E-01   1.00800           0
       170 MEMB     2        POPC     C3       CTL2     0.800000E-01   12.0110           0
       171 MEMB     2        POPC     HX       HAL2     0.900000E-01   1.00800           0
       172 MEMB     2        POPC     HY       HAL2     0.900000E-01   1.00800           0
       173 MEMB     2        POPC     O31      OSL     -0.490000       15.9994           0
       174 MEMB     2        POPC     C31      CL       0.900000       12.0110           0
       175 MEMB     2        POPC     O32      OBL     -0.630000       15.9994           0
       176 MEMB     2        POPC     C32      CTL2    -0.220000       12.0110           0
       177 MEMB     2        POPC     H2X      HAL2     0.900000E-01   1.00800           0
       178 MEMB     2        POPC     H2Y      HAL2     0.900000E-01   1.00800           0
       179 MEMB     2        POPC     C23      CTL2    -0.180000       12.0110           0
       180 MEMB     2        POPC     H3R      HAL2     0.900000E-01   1.00800           0
       181 MEMB     2        POPC     H3S      HAL2     0.900000E-01   1.00800           0
       182 MEMB     2        POPC     C24      CTL2    -0.180000       12.0110           0
       183 MEMB     2        POPC     H4R      HAL2     0.900000E-01   1.00800           0
       184 MEMB     2        POPC     H4S      HAL2     0.900000E-01   1.00800           0
       185 MEMB     2        POPC     C25      CTL2    -0.180000       12.0110           0
       186 MEMB     2        POPC     H5R      HAL2     0.900000E-01   1.00800           0
       187 MEMB     2        POPC     H5S      HAL2     0.900000E-01   1.00800           0
       188 MEMB     2        POPC     C26      CTL2    -0.180000       12.0110           0
       189 MEMB     2        POPC     H6R      HAL2     0.900000E-01   1.00800           0
       190 MEMB     2        POPC     H6S      HAL2     0.900000E-01   1.00800           0
       191 MEMB     2        POPC     C27      CTL2    -0.180000       12.0110           0
       192 MEMB     2        POPC     H7R      HAL2     0.900000E-01   1.00800           0
       193 MEMB     2        POPC     H7S      HAL2     0.900000E-01   1.00800           0
       194 MEMB     2        POPC     C28      CTL2    -0.180000       12.0110           0
       195 MEMB     2        POPC     H8R      HAL2     0.900000E-01   1.00800           0
       196 MEMB     2        POPC     H8S      HAL2     0.900000E-01   1.00800           0
       197 MEMB     2        POPC     C29      CEL1    -0.150000       12.0110           0
       198 MEMB     2        POPC     H91      HEL1     0.150000       1.00800           0
       199 MEMB     2        POPC     C210     CEL1    -0.150000       12.0110           0
       200 MEMB     2        POPC     H101     HEL1     0.150000       1.00800           0
       201 MEMB     2        POPC     C211     CTL2    -0.180000       12.0110           0
       202 MEMB     2        POPC     H11R     HAL2     0.900000E-01   1.00800           0
       203 MEMB     2        POPC     H11S     HAL2     0.900000E-01   1.00800           0
       204 MEMB     2        POPC     C212     CTL2    -0.180000       12.0110           0
       205 MEMB     2        POPC     H12R     HAL2     0.900000E-01   1.00800           0
       206 MEMB     2        POPC     H12S     HAL2     0.900000E-01   1.00800           0
       207 MEMB     2        POPC     C213     CTL2    -0.180000       12.0110           0
       208 MEMB     2        POPC     H13R     HAL2     0.900000E-01   1.00800           0
       209 MEMB     2        POPC     H13S     HAL2     0.900000E-01   1.00800           0
       210 MEMB     2        POPC     C214     CTL2    -0.180000       12.0110           0
       211 MEMB     2        POPC     H14R     HAL2     0.900000E-01   1.00800           0
       212 MEMB     2        POPC     H14S     HAL2     0.900000E-01   1.00800           0
       213 MEMB     2        POPC     C215     CTL2    -0.180000       12.0110           0
       214 MEMB     2        POPC     H15R     HAL2     0.900000E-01   1.00800           0
       215 MEMB     2        POPC     H15S     HAL2     0.900000E-01   1.00800           0
       216 MEMB     2        POPC     C216     CTL2    -0.180000       12.0110           0
       217 MEMB     2        POPC     H16R     HAL2     0.900000E-01   1.00800           0
       218 MEMB     2        POPC     H16S     HAL2     0.900000E-01   1.00800           0
       219 MEMB     2        POPC     C217     CTL2    -0.180000       12.0110           0
       220 MEMB     2        POPC     H17R     HAL2     0.900000E-01   1.00800           0
       221 MEMB     2        POPC     H17S     HAL2     0.900000E-01   1.00800           0
       222 MEMB     2        POPC     C218     CTL3    -0.270000       12.0110           0
       223 MEMB     2        POPC     H18R     HAL3     0.900000E-01   1.00800           0
       224 MEMB     2        POPC     H18S     HAL3     0.900000E-01   1.00800           0
       225 MEMB     2        POPC     H18T     HAL3     0.900000E-01   1.00800           0
       226 MEMB     2        POPC     C33      CTL2    -0.180000       12.0110           0
       227 MEMB     2        POPC     H3X      HAL2     0.900000E-01   1.00800           0
       228 MEMB     2        POPC     H3Y      HAL2     0.900000E-01   1.00800           0
       229 MEMB     2        POPC     C34      CTL2    -0.180000       12.0110           0
       230 MEMB     2        POPC     H4X      HAL2     0.900000E-01   1.00800           0
       231 MEMB     2        POPC     H4Y      HAL2     0.900000E-01   1.00800           0
       232 MEMB     2        POPC     C35      CTL2    -0.180000       12.0110           0
       233 MEMB     2        POPC     H5X      HAL2     0.900000E-01   1.00800           0
       234 MEMB     2        POPC     H5Y      HAL2     0.900000E-01   1.00800           0
       235 MEMB     2        POPC     C36      CTL2    -0.180000       12.0110           0
       236 MEMB     2        POPC     H6X      HAL2     0.900000E-01   1.00800           0
       237 MEMB     2        POPC     H6Y      HAL2     0.900000E-01   1.00800           0
       238 MEMB     2        POPC     C37      CTL2    -0.180000       12.0110           0
       239 MEMB     2        POPC     H7X      HAL2     0.900000E-01   1.00800           0
       240 MEMB     2        POPC     H7Y      HAL2     0.900000E-01   1.00800           0
       241 MEMB     2        POPC     C38      CTL2    -0.180000       12.0110           0
       242 MEMB     2        POPC     H8X      HAL2     0.900000E-01   1.00800           0
       243 MEMB     2        POPC     H8Y      HAL2     0.900000E-01   1.00800           0
       244 MEMB     2        POPC     C39      CTL2    -0.180000       12.0110           0
       245 MEMB     2        POPC     H9X      HAL2     0.900000E-01   1.00800           0
       246 MEMB     2        POPC     H9Y      HAL2     0.900000E-01   1.00800           0
       247 MEMB     2        POPC     C310     CTL2    -0.180000       12.0110           0
       248 MEMB     2        POPC     H10X     HAL2     0.900000E-01   1.00800           0
       249 MEMB     2        POPC     H10Y     HAL2     0.900000E-01   1.00800           0
       250 MEMB     2        POPC     C311     CTL2    -0.180000       12.0110           0
       251 MEMB     2        POPC     H11X     HAL2     0.900000E-01   1.00800           0
       252 MEMB     2        POPC     H11Y     HAL2     0.900000E-01   1.00800           0
       253 MEMB     2        POPC     C312     CTL2    -0.180000       12.0110           0
       254 MEMB     2        POPC     H12X     HAL2     0.900000E-01   1.00800           0
       255 MEMB     2        POPC     H12Y     HAL2     0.900000E-01   1.00800           0
       256 MEMB     2        POPC     C313     CTL2    -0.180000       12.0110           0
       257 MEMB     2        POPC     H13X     HAL2     0.900000E-01   1.00800           0
       258 MEMB     2        POPC     H13Y     HAL2     0.900000E-01   1.00800           0
       259 MEMB     2        POPC     C314     CTL2    -0.180000       12.0110           0
       260 MEMB     2        POPC     H14X     HAL2     0.900000E-01   1.00800           0
       261 MEMB     2        POPC     H14Y     HAL2     0.900000E-01   1.00800           0
       262 MEMB     2        POPC     C315     CTL2    -0.180000       12.0110           0
       263 MEMB     2        POPC     H15X     HAL2     0.900000E-01   1.00800           0
       264 MEMB     2        POPC     H15Y     HAL2     0.900000E-01   1.00800           0
       265 MEMB     2        POPC     C316     CTL3    -0.270000       12.0110           0
       266 MEMB     2        POPC     H16X     HAL3     0.900000E-01   1.00800           0
       267 MEMB     2        POPC     H16Y     HAL3     0.900000E-01   1.00800           0
       268 MEMB     2        POPC     H16Z     HAL3     0.900000E-01   1.00800           0
       269 MEMB     3        POPC     N        NTL     -0.600000       14.0070           0
       270 MEMB     3        POPC     C12      CTL2    -0.100000       12.0110           0
       271 MEMB     3        POPC     H12A     HL       0.250000       1.00800           0
       272 MEMB     3        POPC     H12B     HL       0.250000       1.00800           0
       273 MEMB     3        POPC     C13      CTL5    -0.350000       12.0110           0
       274 MEMB     3        POPC     H13A     HL       0.250000       1.00800           0
       275 MEMB     3        POPC     H13B     HL       0.250000       1.00800           0
       276 MEMB     3        POPC     H13C     HL       0.250000       1.00800           0
       277 MEMB     3        POPC     C14      CTL5    -0.350000       12.0110           0
       278 MEMB     3        POPC     H14A     HL       0.250000       1.00800           0
       279 MEMB     3        POPC     H14B     HL       0.250000       1.00800           0
       280 MEMB     3        POPC     H14C     HL       0.250000       1.00800           0
       281 MEMB     3        POPC     C15      CTL5    -0.350000       12.0110           0
       282 MEMB     3        POPC     H15A     HL       0.250000       1.00800           0
       283 MEMB     3        POPC     H15B     HL       0.250000       1.00800           0
       284 MEMB     3        POPC     H15C     HL       0.250000       1.00800           0
       285 MEMB     3        POPC     C11      CTL2    -0.800000E-01   12.0110           0
       286 MEMB     3        POPC     H11A     HAL2     0.900000E-01   1.00800           0
       287 MEMB     3        POPC     H11B     HAL2     0.900000E-01   1.00800           0
       288 MEMB     3        POPC     P        PL        1.50000       30.9740           0
       289 MEMB     3        POPC     O13      O2L     -0.780000       15.9994           0
       290 MEMB     3        POPC     O14      O2L     -0.780000       15.9994           0
       291 MEMB     3        POPC     O12      OSLP    -0.570000       15.9994           0
       292 MEMB     3        POPC     O11      OSLP    -0.570000       15.9994           0
       293 MEMB     3        POPC     C1       CTL2    -0.800000E-01   12.0110           0
       294 MEMB     3        POPC     HA       HAL2     0.900000E-01   1.00800           0
       295 MEMB     3        POPC     HB       HAL2     0.900000E-01   1.00800           0
       296 MEMB     3        POPC     C2       CTL1     0.170000       12.0110           0
       297 MEMB     3        POPC     HS       HAL1     0.900000E-01   1.00800           0
       298 MEMB     3        POPC     O21      OSL     -0.490000       15.9994           0
       299 MEMB     3        POPC     C21      CL       0.900000       12.0110           0
       300 MEMB     3        POPC     O22      OBL     -0.630000       15.9994           0
       301 MEMB     3        POPC     C22      CTL2    -0.220000       12.0110           0
       302 MEMB     3        POPC     H2R      HAL2     0.900000E-01   1.00800           0
       303 MEMB     3        POPC     H2S      HAL2     0.900000E-01   1.00800           0
       304 MEMB     3        POPC     C3       CTL2     0.800000E-01   12.0110           0
       305 MEMB     3        POPC     HX       HAL2     0.900000E-01   1.00800           0
       306 MEMB     3        POPC     HY       HAL2     0.900000E-01   1.00800           0
       307 MEMB     3        POPC     O31      OSL     -0.490000       15.9994           0
       308 MEMB     3        POPC     C31      CL       0.900000       12.0110           0
       309 MEMB     3        POPC     O32      OBL     -0.630000       15.9994           0
       310 MEMB     3        POPC     C32      CTL2    -0.220000       12.0110           0
       311 MEMB     3        POPC     H2X      HAL2     0.900000E-01   1.00800           0
       312 MEMB     3        POPC     H2Y      HAL2     0.900000E-01   1.00800           0
       313 MEMB     3        POPC     C23      CTL2    -0.180000       12.0110           0
       314 MEMB     3        POPC     H3R      HAL2     0.900000E-01   1.00800           0
       315 MEMB     3        POPC     H3S      HAL2     0.900000E-01   1.00800           0
       316 MEMB     3        POPC     C24      CTL2    -0.180000       12.0110           0
       317 MEMB     3        POPC     H4R      HAL2     0.900000E-01   1.00800           0
       318 MEMB     3        POPC     H4S      HAL2     0.900000E-01   1.00800           0
       319 MEMB     3        POPC     C25      CTL2    -0.180000       12.0110           0
       320 MEMB     3        POPC     H5R      HAL2     0.900000E-01   1.00800           0
       321 MEMB     3        POPC     H5S      HAL2     0.900000E-01   1.00800           0
       322 MEMB     3        POPC     C26      CTL2    -0.180000       12.0110           0
       323 MEMB     3        POPC     H6R      HAL2     0.900000E-01   1.00800           0
       324 MEMB     3        POPC     H6S      HAL2     0.900000E-01   1.00800           0
       325 MEMB     3        POPC     C27      CTL2    -0.180000       12.0110           0
       326 MEMB     3        POPC     H7R      HAL2     0.900000E-01   1.00800           0
       327 MEMB     3        POPC     H7S      HAL2     0.900000E-01   1.00800           0
       328 MEMB     3        POPC     C28      CTL2    -0.180000       12.0110           0
       329 MEMB     3        POPC     H8R      HAL2     0.900000E-01   1.00800           0
       330 MEMB     3        POPC     H8S      HAL2     0.900000E-01   1.00800           0
       331 MEMB     3        POPC     C29      CEL1    -0.150000       12.0110           0
       332 MEMB     3        POPC     H91      HEL1     0.150000       1.00800           0
       333 MEMB     3        POPC     C210     CEL1    -0.150000       12.0110           0
       334 MEMB     3        POPC     H101     HEL1     0.150000       1.00800           0
       335 MEMB     3        POPC     C211     CTL2    -0.180000       12.0110           0
       336 MEMB     3        POPC     H11R     HAL2     0.900000E-01   1.00800           0
       337 MEMB     3        POPC     H11S     HAL2     0.900000E-01   1.00800           0
       338 MEMB     3        POPC     C212     CTL2    -0.180000       12.0110           0
       339 MEMB     3        POPC     H12R     HAL2     0.900000E-01   1.00800           0
       340 MEMB     3        POPC     H12S     HAL2     0.900000E-01   1.00800           0
       341 MEMB     3        POPC     C213     CTL2    -0.180000       12.0110           0
       342 MEMB     3        POPC     H13R     HAL2     0.900000E-01   1.00800           0
       343 MEMB     3        POPC     H13S     HAL2     0.900000E-01   1.00800           0
       344 MEMB     3        POPC     C214     CTL2    -0.180000       12.0110           0
       345 MEMB     3        POPC     H14R     HAL2     0.900000E-01   1.00800           0
       346 MEMB     3        POPC     H14S     HAL2     0.900000E-01   1.00800           0
       347 MEMB     3        POPC     C215     CTL2    -0.180000       12.0110           0
       348 MEMB     3        POPC     H15R     HAL2     0.900000E-01   1.00800           0
       349 MEMB     3        POPC     H15S     HAL2     0.900000E-01   1.00800           0
       350 MEMB     3        POPC     C216     CTL2    -0.180000       12.0110           0
       351 MEMB     3        POPC     H16R     HAL2     0.900000E-01   1.00800           0
       352 MEMB     3        POPC     H16S     HAL2     0.900000E-01   1.00800           0
       353 MEMB     3        POPC     C217     CTL2    -0.180000       12.0110           0
       354 MEMB     3        POPC     H17R     HAL2     0.900000E-01   1.00800           0
       355 MEMB     3        POPC     H17S     HAL2     0.900000E-01   1.00800           0
       356 MEMB     3        POPC     C218     CTL3    -0.270000       12.0110           0
       357 MEMB     3        POPC     H18R     HAL3     0.900000E-01   1.00800           0
       358 MEMB     3        POPC     H18S     HAL3     0.900000E-01   1.00800           0
       359 MEMB     3        POPC     H18T     HAL3     0.900000E-01   1.00800           0
       360 MEMB     3        POPC     C33      CTL2    -0.180000       12.0110           0
       361 MEMB     3        POPC     H3X      HAL2     0.900000E-01   1.00800           0
       362 MEMB     3        POPC     H3Y      HAL2     0.900000E-01   1.00800           0
       363 MEMB     3        POPC     C34      CTL2    -0.180000       12.0110           0
       364 MEMB     3        POPC     H4X      HAL2     0.900000E-01   1.00800           0
       365 MEMB     3        POPC     H4Y      HAL2     0.900000E-01   1.00800           0
       366 MEMB     3        POPC     C35      CTL2    -0.180000       12.0110           0
       367 MEMB     3        POPC     H5X      HAL2     0.900000E-01   1.00800           0
       368 MEMB     3        POPC     H5Y      HAL2     0.900000E-01   1.00800           0
       369 MEMB     3        POPC     C36      CTL2    -0.180000       12.0110           0
       370 MEMB     3        POPC     H6X      HAL2     0.900000E-01   1.00800           0
       371 MEMB     3        POPC     H6Y      HAL2     0.900000E-01   1.00800           0
       372 MEMB     3        POPC     C37      CTL2    -0.180000       12.0110           0
       373 MEMB     3        POPC     H7X      HAL2     0.900000E-01   1.00800           0
       374 MEMB     3        POPC     H7Y      HAL2     0.900000E-01   1.00800           0
       375 MEMB     3        POPC     C38      CTL2    -0.180000       12.0110           0
       376 MEMB     3        POPC     H8X      HAL2     0.900000E-01   1.00800           0
       377 MEMB     3        POPC     H8Y      HAL2     0.900000E-01   1.00800           0
       378 MEMB     3        POPC     C39      CTL2    -0.180000       12.0110           0
       379 MEMB     3        POPC     H9X      HAL2     0.900000E-01   1.00800           0
       380 MEMB     3        POPC     H9Y      HAL2     0.900000E-01   1.00800           0
       381 MEMB     3        POPC     C310     CTL2    -0.180000       12.0110           0
       382 MEMB     3        POPC     H10X     HAL2     0.900000E-01   1.00800           0
       383 MEMB     3        POPC     H10Y     HAL2     0.900000E-01   1.00800           0
       384 MEMB     3        POPC     C311     CTL2    -0.180000       12.0110           0
       385 MEMB     3        POPC     H11X     HAL2     0.900000E-01   1.00800           0
       386 MEMB     3        POPC     H11Y     HAL2     0.900000E-01   1.00800           0
       387 MEMB     3        POPC     C312     CTL2    -0.180000       12.0110           0
       388 MEMB     3        POPC     H12X     HAL2     0.900000E-01   1.00800           0
       389 MEMB     3        POPC     H12Y     HAL2     0.900000E-01   1.00800           0
       390 MEMB     3        POPC     C313     CTL2    -0.180000       12.0110           0
       391 MEMB     3        POPC     H13X     HAL2     0.900000E-01   1.00800           0
       392 MEMB     3        POPC     H13Y     HAL2     0.900000E-01   1.00800           0
       393 MEMB     3        POPC     C314     CTL2    -0.180000       12.0110           0
       394 MEMB     3        POPC     H14X     HAL2     0.900000E-01   1.00800           0
       395 MEMB     3        POPC     H14Y     HAL2     0.900000E-01   1.00800           0
       396 MEMB     3        POPC     C315     CTL2    -0.180000       12.0110           0
       397 MEMB     3        POPC     H15X     HAL2     0.900000E-01   1.00800           0
       398 MEMB     3        POPC     H15Y     HAL2     0.900000E-01   1.00800           0
       399 MEMB     3        POPC     C316     CTL3    -0.270000       12.0110           0
       400 MEMB     3        POPC     H16X     HAL3     0.900000E-01   1.00800           0
       401 MEMB     3        POPC     H16Y     HAL3     0.900000E-01   1.00800           0
       402 MEMB     3        POPC     H16Z     HAL3     0.900000E-01   1.00800           0
       403 MEMB     4        POPC     N        NTL     -0.600000       14.0070           0
       404 MEMB     4        POPC     C12      CTL2    -0.100000       12.0110           0
       405 MEMB     4        POPC     H12A     HL       0.250000       1.00800           0
       406 MEMB     4        POPC     H12B     HL       0.250000       1.00800           0
       407 MEMB     4        POPC     C13      CTL5    -0.350000       12.0110           0
       408 MEMB     4        POPC     H13A     HL       0.250000       1.00800           0
       409 MEMB     4        POPC     H13B     HL       0.250000       1.00800           0
       410 MEMB     4        POPC     H13C     HL       0.250000       1.00800           0
       411 MEMB     4        POPC     C14      CTL5    -0.350000       12.0110           0
       412 MEMB     4        POPC     H14A     HL       0.250000       1.00800           0
       413 MEMB     4        POPC     H14B     HL       0.250000       1.00800           0
       414 MEMB     4        POPC     H14C     HL       0.250000       1.00800           0
       415 MEMB     4        POPC     C15      CTL5    -0.350000       12.0110           0
       416 MEMB     4        POPC     H15A     HL       0.250000       1.00800           0
       417 MEMB     4        POPC     H15B     HL       0.250000       1.00800           0
       418 MEMB     4        POPC     H15C     HL       0.250000       1.00800           0
       419 MEMB     4        POPC     C11      CTL2    -0.800000E-01   12.0110           0
       420 MEMB     4        POPC     H11A     HAL2     0.900000E-01   1.00800           0
       421 MEMB     4        POPC     H11B     HAL2     0.900000E-01   1.00800           0
       422 MEMB     4        POPC     P        PL        1.50000       30.9740           0
       423 MEMB     4        POPC     O13      O2L     -0.780000       15.9994           0
       424 MEMB     4        POPC     O14      O2L     -0.780000       15.9994           0
       425 MEMB     4        POPC     O12      OSLP    -0.570000       15.9994           0
       426 MEMB     4        POPC     O11      OSLP    -0.570000       15.9994           0
       427 MEMB     4        POPC     C1       CTL2    -0.800000E-01   12.0110           0
       428 MEMB     4        POPC     HA       HAL2     0.900000E-01   1.00800           0
       429 MEMB     4        POPC     HB       HAL2     0.900000E-01   1.00800           0
       430 MEMB     4        POPC     C2       CTL1     0.170000       12.0110           0
       431 MEMB     4        POPC     HS       HAL1     0.900000E-01   1.00800           0
       432 MEMB     4        POPC     O21      OSL     -0.490000       15.9994           0
       433 MEMB     4        POPC     C21      CL       0.900000       12.0110           0
       434 MEMB     4        POPC     O22      OBL     -0.630000       15.9994           0
       435 MEMB     4        POPC     C22      CTL2    -0.220000       12.0110           0
       436 MEMB     4        POPC     H2R      HAL2     0.900000E-01   1.00800           0
       437 MEMB     4        POPC     H2S      HAL2     0.900000E-01   1.00800           0
       438 MEMB     4        POPC     C3       CTL2     0.800000E-01   12.0110           0
       439 MEMB     4        POPC     HX       HAL2     0.900000E-01   1.00800           0
       440 MEMB     4        POPC     HY       HAL2     0.900000E-01   1.00800           0
       441 MEMB     4        POPC     O31      OSL     -0.490000       15.9994           0
       442 MEMB     4        POPC     C31      CL       0.900000       12.0110           0
       443 MEMB     4        POPC     O32      OBL     -0.630000       15.9994           0
       444 MEMB     4        POPC     C32      CTL2    -0.220000       12.0110           0
       445 MEMB     4        POPC     H2X      HAL2     0.900000E-01   1.00800           0
       446 MEMB     4        POPC     H2Y      HAL2     0.900000E-01   1.00800           0
       447 MEMB     4        POPC     C23      CTL2    -0.180000       12.0110           0
       448 MEMB     4        POPC     H3R      HAL2     0.900000E-01   1.00800           0
       449 MEMB     4        POPC     H3S      HAL2     0.900000E-01   1.00800           0
       450 MEMB     4        POPC     C24      CTL2    -0.180000       12.0110           0
       451 MEMB     4        POPC     H4R      HAL2     0.900000E-01   1.00800           0
       452 MEMB     4        POPC     H4S      HAL2     0.900000E-01   1.00800           0
       453 MEMB     4        POPC     C25      CTL2    -0.180000       12.0110           0
       454 MEMB     4        POPC     H5R      HAL2     0.900000E-01   1.00800           0
       455 MEMB     4        POPC     H5S      HAL2     0.900000E-01   1.00800           0
       456 MEMB     4        POPC     C26      CTL2    -0.180000       12.0110           0
       457 MEMB     4        POPC     H6R      HAL2     0.900000E-01   1.00800           0
       458 MEMB     4        POPC     H6S      HAL2     0.900000E-01   1.00800           0
       459 MEMB     4        POPC     C27      CTL2    -0.180000       12.0110           0
       460 MEMB     4        POPC     H7R      HAL2     0.900000E-01   1.00800           0
       461 MEMB     4        POPC     H7S      HAL2     0.900000E-01   1.00800           0
       462 MEMB     4        POPC     C28      CTL2    -0.180000       12.0110           0
       463 MEMB     4        POPC     H8R      HAL2     0.900000E-01   1.00800           0
       464 MEMB     4        POPC     H8S      HAL2     0.900000E-01   1.00800           0
       465 MEMB     4        POPC     C29      CEL1    -0.150000       12.0110           0
       466 MEMB     4        POPC     H91      HEL1     0.150000       1.00800           0
       467 MEMB     4        POPC     C210     CEL1    -0.150000       12.0110           0
       468 MEMB     4        POPC     H101     HEL1     0.150000       1.00800           0
       469 MEMB     4        POPC     C211     CTL2    -0.180000       12.0110           0
       470 MEMB     4        POPC     H11R     HAL2     0.900000E-01   1.00800           0
       471 MEMB     4        POPC     H11S     HAL2     0.900000E-01   1.00800           0
       472 MEMB     4        POPC     C212     CTL2    -0.180000       12.0110           0
       473 MEMB     4        POPC     H12R     HAL2     0.900000E-01   1.00800           0
       474 MEMB     4        POPC     H12S     HAL2     0.900000E-01   1.00800           0
       475 MEMB     4        POPC     C213     CTL2    -0.180000       12.0110           0
       476 MEMB     4        POPC     H13R     HAL2     0.900000E-01   1.00800           0
       477 MEMB     4        POPC     H13S     HAL2     0.900000E-01   1.00800           0
       478 MEMB     4        POPC     C214     CTL2    -0.180000       12.0110           0
       479 MEMB     4        POPC     H14R     HAL2     0.900000E-01   1.00800           0
       480 MEMB     4        POPC     H14S     HAL2     0.900000E-01   1.00800           0
       481 MEMB     4        POPC     C215     CTL2    -0.180000       12.0110           0
       482 MEMB     4        POPC     H15R     HAL2     0.900000E-01   1.00800           0
       483 MEMB     4        POPC     H15S     HAL2     0.900000E-01   1.00800           0
       484 MEMB     4        POPC     C216     CTL2    -0.180000       12.0110           0
       485 MEMB     4        POPC     H16R     HAL2     0.900000E-01   1.00800           0
       486 MEMB     4        POPC     H16S     HAL2     0.900000E-01   1.00800           0
       487 MEMB     4        POPC     C217     CTL2    -0.180000       12.0110           0
       488 MEMB     4        POPC     H17R     HAL2     0.900000E-01   1.00800           0
       489 MEMB     4        POPC     H17S     HAL2     0.900000E-01   1.00800           0
       490 MEMB     4        POPC     C218     CTL3    -0.270000       12.0110           0
       491 MEMB     4        POPC     H18R     HAL3     0.900000E-01   1.00800           0
       492 MEMB     4        POPC     H18S     HAL3     0.900000E-01   1.00800           0
       493 MEMB     4        POPC     H18T     HAL3     0.900000E-01   1.00800           0
       494 MEMB     4        POPC     C33      CTL2    -0.180000       12.0110           0
       495 MEMB     4        POPC     H3X      HAL2     0.900000E-01   1.00800           0
       496 MEMB     4        POPC     H3Y      HAL2     0.900000E-01   1.00800           0
       497 MEMB     4        POPC     C34      CTL2    -0.180000       12.0110           0
       498 MEMB     4        POPC     H4X      HAL2     0.900000E-01   1.00800           0
       499 MEMB     4        POPC     H4Y      HAL2     0.900000E-01   1.00800           0
       500 MEMB     4        POPC     C35      CTL2    -0.180000       12.0110           0
       501 MEMB     4        POPC     H5X      HAL2     0.900000E-01   1.00800           0
       502 MEMB     4        POPC     H5Y      HAL2     0.900000E-01   1.00800           0
       503 MEMB     4        POPC     C36      CTL2    -0.180000       12.0110           0
       504 MEMB     4        POPC     H6X      HAL2     0.900000E-01   1.00800           0
       505 MEMB     4        POPC     H6Y      HAL2     0.900000E-01   1.00800           0
       506 MEMB     4        POPC     C37      CTL2    -0.180000       12.0110           0
       507 MEMB     4        POPC     H7X      HAL2     0.900000E-01   1.00800           0
       508 MEMB     4        POPC     H7Y      HAL2     0.900000E-01   1.00800           0
       509 MEMB     4        POPC     C38      CTL2    -0.180000       12.0110           0
       510 MEMB     4        POPC     H8X      HAL2     0.900000E-01   1.00800           0
       511 MEMB     4        POPC     H8Y      HAL2     0.900000E-01   1.00800           0
       512 MEMB     4        POPC     C39      CTL2    -0.180000       12.0110           0
       513 MEMB     4        POPC     H9X      HAL2     0.900000E-01   1.00800           0
       514 MEMB     4        POPC     H9Y      HAL2     0.900000E-01   1.00800           0
       515 MEMB     4        POPC     C310     CTL2    -0.180000       12.0110           0
       516 MEMB     4        POPC     H10X     HAL2     0.900000E-01   1.00800           0
       517 MEMB     4        POPC     H10Y     HAL2     0.900000E-01   1.00800           0
       518 MEMB     4        POPC     C311     CTL2    -0.180000       12.0110           0
       519 MEMB     4        POPC     H11X     HAL2     0.900000E-01   1.00800           0
       520 MEMB     4        POPC     H11Y     HAL2     0.900000E-01   1.00800           0
       521 MEMB     4        POPC     C312     CTL2    -0.180000       12.0110           0
       522 MEMB     4        POPC     H12X     HAL2     0.900000E-01   1.00800           0
       523 MEMB     4        POPC     H12Y     HAL2     0.900000E-01   1.00800           0
       524 MEMB     4        POPC     C313     CTL2    -0.180000       12.0110           0
       525 MEMB     4        POPC     H13X     HAL2     0.900000E-01   1.00800           0
       526 MEMB     4        POPC     H13Y     HAL2     0.900000E-01   1.00800           0
       527 MEMB     4        POPC     C314     CTL2    -0.180000       12.0110           0
       528 MEMB     4        POPC     H14X     HAL2     0.900000E-01   1.00800           0
       529 MEMB     4        POPC     H14Y     HAL2     0.900000E-01   1.00800           0
       530 MEMB     4        POPC     C315     CTL2    -0.180000       12.0110           0
       531 MEMB     4        POPC     H15X     HAL2     0.900000E-01   1.00800           0
       532 MEMB     4        POPC     H15Y     HAL2     0.900000E-01   1.00800           0
       533 MEMB     4        POPC     C316     CTL3    -0.270000       12.0110           0
       534 MEMB     4        POPC     H16X     HAL3     0.900000E-01   1.00800           0
       535 MEMB     4        POPC     H16Y     HAL3     0.900000E-01   1.00800           0
       536 MEMB     4        POPC     H16Z     HAL3     0.900000E-01   1.00800           0
       537 MEMB     5        POPC     N        NTL     -0.600000       14.0070           0
       538 MEMB     5        POPC     C12      CTL2    -0.100000       12.0110           0
       539 MEMB     5        POPC     H12A     HL       0.250000       1.00800           0
       540 MEMB     5        POPC     H12B     HL       0.250000       1.00800           0
       541 MEMB     5        POPC     C13      CTL5    -0.350000       12.0110           0
       542 MEMB     5        POPC     H13A     HL       0.250000       1.00800           0
       543 MEMB     5        POPC     H13B     HL       0.250000       1.00800           0
       544 MEMB     5        POPC     H13C     HL       0.250000       1.00800           0
       545 MEMB     5        POPC     C14      CTL5    -0.350000       12.0110           0
       546 MEMB     5        POPC     H14A     HL       0.250000       1.00800           0
       547 MEMB     5        POPC     H14B     HL       0.250000       1.00800           0
       548 MEMB     5        POPC     H14C     HL       0.250000       1.00800           0
       549 MEMB     5        POPC     C15      CTL5    -0.350000       12.0110           0
       550 MEMB     5        POPC     H15A     HL       0.250000       1.00800           0
       551 MEMB     5        POPC     H15B     HL       0.250000       1.00800           0
       552 MEMB     5        POPC     H15C     HL       0.250000       1.00800           0
       553 MEMB     5        POPC     C11      CTL2    -0.800000E-01   12.0110           0
       554 MEMB     5        POPC     H11A     HAL2     0.900000E-01   1.00800           0
       555 MEMB     5        POPC     H11B     HAL2     0.900000E-01   1.00800           0
       556 MEMB     5        POPC     P        PL        1.50000       30.9740           0
       557 MEMB     5        POPC     O13      O2L     -0.780000       15.9994           0
       558 MEMB     5        POPC     O14      O2L     -0.780000       15.9994           0
       559 MEMB     5        POPC     O12      OSLP    -0.570000       15.9994           0
       560 MEMB     5        POPC     O11      OSLP    -0.570000       15.9994           0
       561 MEMB     5        POPC     C1       CTL2    -0.800000E-01   12.0110           0
       562 MEMB     5        POPC     HA       HAL2     0.900000E-01   1.00800           0
       563 MEMB     5        POPC     HB       HAL2     0.900000E-01   1.00800           0
       564 MEMB     5        POPC     C2       CTL1     0.170000       12.0110           0
       565 MEMB     5        POPC     HS       HAL1     0.900000E-01   1.00800           0
       566 MEMB     5        POPC     O21      OSL     -0.490000       15.9994           0
       567 MEMB     5        POPC     C21      CL       0.900000       12.0110           0
       568 MEMB     5        POPC     O22      OBL     -0.630000       15.9994           0
       569 MEMB     5        POPC     C22      CTL2    -0.220000       12.0110           0
       570 MEMB     5        POPC     H2R      HAL2     0.900000E-01   1.00800           0
       571 MEMB     5        POPC     H2S      HAL2     0.900000E-01   1.00800           0
       572 MEMB     5        POPC     C3       CTL2     0.800000E-01   12.0110           0
       573 MEMB     5        POPC     HX       HAL2     0.900000E-01   1.00800           0
       574 MEMB     5        POPC     HY       HAL2     0.900000E-01   1.00800           0
       575 MEMB     5        POPC     O31      OSL     -0.490000       15.9994           0
       576 MEMB     5        POPC     C31      CL       0.900000       12.0110           0
       577 MEMB     5        POPC     O32      OBL     -0.630000       15.9994           0
       578 MEMB     5        POPC     C32      CTL2    -0.220000       12.0110           0
       579 MEMB     5        POPC     H2X      HAL2     0.900000E-01   1.00800           0
       580 MEMB     5        POPC     H2Y      HAL2     0.900000E-01   1.00800           0
       581 MEMB     5        POPC     C23      CTL2    -0.180000       12.0110           0
       582 MEMB     5        POPC     H3R      HAL2     0.900000E-01   1.00800           0
       583 MEMB     5        POPC     H3S      HAL2     0.900000E-01   1.00800           0
       584 MEMB     5        POPC     C24      CTL2    -0.180000       12.0110           0
       585 MEMB     5        POPC     H4R      HAL2     0.900000E-01   1.00800           0
       586 MEMB     5        POPC     H4S      HAL2     0.900000E-01   1.00800           0
       587 MEMB     5        POPC     C25      CTL2    -0.180000       12.0110           0
       588 MEMB     5        POPC     H5R      HAL2     0.900000E-01   1.00800           0
       589 MEMB     5        POPC     H5S      HAL2     0.900000E-01   1.00800           0
       590 MEMB     5        POPC     C26      CTL2    -0.180000       12.0110           0
       591 MEMB     5        POPC     H6R      HAL2     0.900000E-01   1.00800           0
       592 MEMB     5        POPC     H6S      HAL2     0.900000E-01   1.00800           0
       593 MEMB     5        POPC     C27      CTL2    -0.180000       12.0110           0
       594 MEMB     5        POPC     H7R      HAL2     0.900000E-01   1.00800           0
       595 MEMB     5        POPC     H7S      HAL2     0.900000E-01   1.00800           0
       596 MEMB     5        POPC     C28      CTL2    -0.180000       12.0110           0
       597 MEMB     5        POPC     H8R      HAL2     0.900000E-01   1.00800           0
       598 MEMB     5        POPC     H8S      HAL2     0.900000E-01   1.00800           0
       599 MEMB     5        POPC     C29      CEL1    -0.150000       12.0110           0
       600 MEMB     5        POPC     H91      HEL1     0.150000       1.00800           0
       601 MEMB     5        POPC     C210     CEL1    -0.150000       12.0110           0
       602 MEMB     5        POPC     H101     HEL1     0.150000       1.00800           0
       603 MEMB     5        POPC     C211     CTL2    -0.180000       12.0110           0
       604 MEMB     5        POPC     H11R     HAL2     0.900000E-01   1.00800           0
       605 MEMB     5        POPC     H11S     HAL2     0.900000E-01   1.00800           0
       606 MEMB     5        POPC     C212     CTL2    -0.180000       12.0110           0
       607 MEMB     5        POPC     H12R     HAL2     0.900000E-01   1.00800           0
       608 MEMB     5        POPC     H12S     HAL2     0.900000E-01   1.00800           0
       609 MEMB     5        POPC     C213     CTL2    -0.180000       12.0110           0
       610 MEMB     5        POPC     H13R     HAL2     0.900000E-01   1.00800           0
       611 MEMB     5        POPC     H13S     HAL2     0.900000E-01   1.00800           0
       612 MEMB     5        POPC     C214     CTL2    -0.180000       12.0110           0
       613 MEMB     5        POPC     H14R     HAL2     0.900000E-01   1.00800           0
       614 MEMB     5        POPC     H14S     HAL2     0.900000E-01   1.00800           0
       615 MEMB     5        POPC     C215     CTL2    -0.180000       12.0110           0
       616 MEMB     5        POPC     H15R     HAL2     0.900000E-01   1.00800           0
       617 MEMB     5        POPC     H15S     HAL2     0.900000E-01   1.00800           0
       618 MEMB     5        POPC     C216     CTL2    -0.180000       12.0110           0
       619 MEMB     5        POPC     H16R     HAL2     0.900000E-01   1.00800           0
       620 MEMB     5        POPC     H16S     HAL2     0.900000E-01   1.00800           0
       621 MEMB     5        POPC     C217     CTL2    -0.180000       12.0110           0
       622 MEMB     5        POPC     H17R     HAL2     0.900000E-01   1.00800           0
       623 MEMB     5        POPC     H17S     HAL2     0.900000E-01   1.00800           0
       624 MEMB     5        POPC     C218     CTL3    -0.270000       12.0110           0
       625 MEMB     5        POPC     H18R     HAL3     0.900000E-01   1.00800           0
       626 MEMB     5        POPC     H18S     HAL3     0.900000E-01   1.00800           0
       627 MEMB     5        POPC     H18T     HAL3     0.900000E-01   1.00800           0
       628 MEMB     5        POPC     C33      CTL2    -0.180000       12.0110           0
       629 MEMB     5        POPC     H3X      HAL2     0.900000E-01   1.00800           0
       630 MEMB     5        POPC     H3Y      HAL2     0.900000E-01   1.00800           0
       631 MEMB     5        POPC     C34      CTL2    -0.180000       12.0110           0
       632 MEMB     5        POPC     H4X      HAL2     0.900000E-01   1.00800           0
       633 MEMB     5        POPC     H4Y      HAL2     0.900000E-01   1.00800           0
       634 MEMB     5        POPC     C35      CTL2    -0.180000       12.0110           0
       635 MEMB     5        POPC     H5X      HAL2     0.900000E-01   1.00800           0
       636 MEMB     5        POPC     H5Y      HAL2     0.900000E-01   1.00800           0
       637 MEMB     5        POPC     C36      CTL2    -0.180000       12.0110           0
       638 MEMB     5        POPC     H6X      HAL2     0.900000E-01   1.00800           0
       639 MEMB     5        POPC     H6Y      HAL2     0.900000E-01   1.00800           0
       640 MEMB     5        POPC     C37      CTL2    -0.180000       12.0110           0
       641 MEMB     5        POPC     H7X      HAL2     0.900000E-01   1.00800           0
       642 MEMB     5        POPC     H7Y      HAL2     0.900000E-01   1.00800           0
       643 MEMB     5        POPC     C38      CTL2    -0.180000       12.0110           0
       644 MEMB     5        POPC     H8X      HAL2     0.900000E-01   1.00800           0
       645 MEMB     5        POPC     H8Y      HAL2     0.900000E-01   1.00800           0
       646 MEMB     5        POPC     C39      CTL2    -0.180000       12.0110           0
       647 MEMB     5        POPC     H9X      HAL2     0.900000E-01   1.00800           0
       648 MEMB     5        POPC     H9Y      HAL2     0.900000E-01   1.00800           0
       649 MEMB     5        POPC     C310     CTL2    -0.180000       12.0110           0
       650 MEMB     5        POPC     H10X     HAL2     0.900000E-01   1.00800           0
       651 MEMB     5        POPC     H10Y     HAL2     0.900000E-01   1.00800           0
       652 MEMB     5        POPC     C311     CTL2    -0.180000       12.0110           0
       653 MEMB     5        POPC     H11X     HAL2     0.900000E-01   1.00800           0
       654 MEMB     5        POPC     H11Y     HAL2     0.900000E-01   1.00800           0
       655 MEMB     5        POPC     C312     CTL2    -0.180000       12.0110           0
       656 MEMB     5        POPC     H12X     HAL2     0.900000E-01   1.00800           0
       657 MEMB     5        POPC     H12Y     HAL2     0.900000E-01   1.00800           0
       658 MEMB     5        POPC     C313     CTL2    -0.180000       12.0110           0
       659 MEMB     5        POPC     H13X     HAL2     0.900000E-01   1.00800           0
       660 MEMB     5        POPC     H13Y     HAL2     0.900000E-01   1.00800           0
       661 MEMB     5        POPC     C314     CTL2    -0.180000       12.0110           0
       662 MEMB     5        POPC     H14X     HAL2     0.900000E-01   1.00800           0
       663 MEMB     5        POPC     H14Y     HAL2     0.900000E-01   1.00800           0
       664 MEMB     5        POPC     C315     CTL2    -0.180000       12.0110           0
       665 MEMB     5        POPC     H15X     HAL2     0.900000E-01   1.00800           0
       666 MEMB     5        POPC     H15Y     HAL2     0.900000E-01   1.00800           0
       667 MEMB     5        POPC     C316     CTL3    -0.270000       12.0110           0
       668 MEMB     5        POPC     H16X     HAL3     0.900000E-01   1.00800           0
       669 MEMB     5        POPC     H16Y     HAL3     0.900000E-01   1.00800           0
       670 MEMB     5        POPC     H16Z     HAL3     0.900000E-01   1.00800           0
       671 MEMB     6        POPC     N        NTL     -0.600000       14.0070           0
       672 MEMB     6        POPC     C12      CTL2    -0.100000       12.0110           0
       673 MEMB     6        POPC     H12A     HL       0.250000       1.00800           0
       674 MEMB     6        POPC     H12B     HL       0.250000       1.00800           0
       675 MEMB     6        POPC     C13      CTL5    -0.350000       12.0110           0
       676 MEMB     6        POPC     H13A     HL       0.250000       1.00800           0
       677 MEMB     6        POPC     H13B     HL       0.250000       1.00800           0
       678 MEMB     6        POPC     H13C     HL       0.250000       1.00800           0
       679 MEMB     6        POPC     C14      CTL5    -0.350000       12.0110           0
       680 MEMB     6        POPC     H14A     HL       0.250000       1.00800           0
       681 MEMB     6        POPC     H14B     HL       0.250000       1.00800           0
       682 MEMB     6        POPC     H14C     HL       0.250000       1.00800           0
       683 MEMB     6        POPC     C15      CTL5    -0.350000       12.0110           0
       684 MEMB     6        POPC     H15A     HL       0.250000       1.00800           0
       685 MEMB     6        POPC     H15B     HL       0.250000       1.00800           0
       686 MEMB     6        POPC     H15C     HL       0.250000       1.00800           0
       687 MEMB     6        POPC     C11      CTL2    -0.800000E-01   12.0110           0
       688 MEMB     6        POPC     H11A     HAL2     0.900000E-01   1.00800           0
       689 MEMB     6        POPC     H11B     HAL2     0.900000E-01   1.00800           0
       690 MEMB     6        POPC     P        PL        1.50000       30.9740           0
       691 MEMB     6        POPC     O13      O2L     -0.780000       15.9994           0
       692 MEMB     6        POPC     O14      O2L     -0.780000       15.9994           0
       693 MEMB     6        POPC     O12      OSLP    -0.570000       15.9994           0
       694 MEMB     6        POPC     O11      OSLP    -0.570000       15.9994           0
       695 MEMB     6        POPC     C1       CTL2    -0.800000E-01   12.0110           0
       696 MEMB     6        POPC     HA       HAL2     0.900000E-01   1.00800           0
       697 MEMB     6        POPC     HB       HAL2     0.900000E-01   1.00800           0
       698 MEMB     6        POPC     C2       CTL1     0.170000       12.0110           0
       699 MEMB     6        POPC     HS       HAL1     0.900000E-01   1.00800           0
       700 MEMB     6        POPC     O21      OSL     -0.490000       15.9994           0
       701 MEMB     6        POPC     C21      CL       0.900000       12.0110           0
       702 MEMB     6        POPC     O22      OBL     -0.630000       15.9994           0
       703 MEMB     6        POPC     C22      CTL2    -0.220000       12.0110           0
       704 MEMB     6        POPC     H2R      HAL2     0.900000E-01   1.00800           0
       705 MEMB     6        POPC     H2S      HAL2     0.900000E-01   1.00800           0
       706 MEMB     6        POPC     C3       CTL2     0.800000E-01   12.0110           0
       707 MEMB     6        POPC     HX       HAL2     0.900000E-01   1.00800           0
       708 MEMB     6        POPC     HY       HAL2     0.900000E-01   1.00800           0
       709 MEMB     6        POPC     O31      OSL     -0.490000       15.9994           0
       710 MEMB     6        POPC     C31      CL       0.900000       12.0110           0
       711 MEMB     6        POPC     O32      OBL     -0.630000       15.9994           0
       712 MEMB     6        POPC     C32      CTL2    -0.220000       12.0110           0
       713 MEMB     6        POPC     H2X      HAL2     0.900000E-01   1.00800           0
       714 MEMB     6        POPC     H2Y      HAL2     0.900000E-01   1.00800           0
       715 MEMB     6        POPC     C23      CTL2    -0.180000       12.0110           0
       716 MEMB     6        POPC     H3R      HAL2     0.900000E-01   1.00800           0
       717 MEMB     6        POPC     H3S      HAL2     0.900000E-01   1.00800           0
       718 MEMB     6        POPC     C24      CTL2    -0.180000       12.0110           0
       719 MEMB     6        POPC     H4R      HAL2     0.900000E-01   1.00800           0
       720 MEMB     6        POPC     H4S      HAL2     0.900000E-01   1.00800           0
       721 MEMB     6        POPC     C25      CTL2    -0.180000       12.0110           0
       722 MEMB     6        POPC     H5R      HAL2     0.900000E-01   1.00800           0
       723 MEMB     6        POPC     H5S      HAL2     0.900000E-01   1.00800           0
       724 MEMB     6        POPC     C26      CTL2    -0.180000       12.0110           0
       725 MEMB     6        POPC     H6R      HAL2     0.900000E-01   1.00800           0
       726 MEMB     6        POPC     H6S      HAL2     0.900000E-01   1.00800           0
       727 MEMB     6        POPC     C27      CTL2    -0.180000       12.0110           0
       728 MEMB     6        POPC     H7R      HAL2     0.900000E-01   1.00800           0
       729 MEMB     6        POPC     H7S      HAL2     0.900000E-01   1.00800           0
       730 MEMB     6        POPC     C28      CTL2    -0.180000       12.0110           0
       731 MEMB     6        POPC     H8R      HAL2     0.900000E-01   1.00800           0
       732 MEMB     6        POPC     H8S      HAL2     0.900000E-01   1.00800           0
       733 MEMB     6        POPC     C29      CEL1    -0.150000       12.0110           0
       734 MEMB     6        POPC     H91      HEL1     0.150000       1.00800           0
       735 MEMB     6        POPC     C210     CEL1    -0.150000       12.0110           0
       736 MEMB     6        POPC     H101     HEL1     0.150000       1.00800           0
       737 MEMB     6        POPC     C211     CTL2    -0.180000       12.0110           0
       738 MEMB     6        POPC     H11R     HAL2     0.900000E-01   1.00800           0
       739 MEMB     6        POPC     H11S     HAL2     0.900000E-01   1.00800           0
       740 MEMB     6        POPC     C212     CTL2    -0.180000       12.0110           0
       741 MEMB     6        POPC     H12R     HAL2     0.900000E-01   1.00800           0
       742 MEMB     6        POPC     H12S     HAL2     0.900000E-01   1.00800           0
       743 MEMB     6        POPC     C213     CTL2    -0.180000       12.0110           0
       744 MEMB     6        POPC     H13R     HAL2     0.900000E-01   1.00800           0
       745 MEMB     6        POPC     H13S     HAL2     0.900000E-01   1.00800           0
       746 MEMB     6        POPC     C214     CTL2    -0.180000       12.0110           0
       747 MEMB     6        POPC     H14R     HAL2     0.900000E-01   1.00800           0
       748 MEMB     6        POPC     H14S     HAL2     0.900000E-01   1.00800           0
       749 MEMB     6        POPC     C215     CTL2    -0.180000       12.0110           0
       750 MEMB     6        POPC     H15R     HAL2     0.900000E-01   1.00800           0
       751 MEMB     6        POPC     H15S     HAL2     0.900000E-01   1.00800           0
       752 MEMB     6        POPC     C216     CTL2    -0.180000       12.0110           0
       753 MEMB     6        POPC     H16R     HAL2     0.900000E-01   1.00800           0
       754 MEMB     6        POPC     H16S     HAL2     0.900000E-01   1.00800           0
       755 MEMB     6        POPC     C217     CTL2    -0.180000       12.0110           0
       756 MEMB     6        POPC     H17R     HAL2     0.900000E-01   1.00800           0
       757 MEMB     6        POPC     H17S     HAL2     0.900000E-01   1.00800           0
       758 MEMB     6        POPC     C218     CTL3    -0.270000       12.0110           0
       759 MEMB     6        POPC     H18R     HAL3     0.900000E-01   1.00800           0
       760 MEMB     6        POPC     H18S     HAL3     0.900000E-01   1.00800           0
       761 MEMB     6        POPC     H18T     HAL3     0.900000E-01   1.00800           0
       762 MEMB     6        POPC     C33      CTL2    -0.180000       12.0110           0
       763 MEMB     6        POPC     H3X      HAL2     0.900000E-01   1.00800           0
       764 MEMB     6        POPC     H3Y      HAL2     0.900000E-01   1.00800           0
       765 MEMB     6        POPC     C34      CTL2    -0.180000       12.0110           0
       766 MEMB     6        POPC     H4X      HAL2     0.900000E-01   1.00800           0
       767 MEMB     6        POPC     H4Y      HAL2     0.900000E-01   1.00800           0
       768 MEMB     6        POPC     C35      CTL2    -0.180000       12.0110           0
       769 MEMB     6        POPC     H5X      HAL2     0.900000E-01   1.00800           0
       770 MEMB     6        POPC     H5Y      HAL2     0.900000E-01   1.00800           0
       771 MEMB     6        POPC     C36      CTL2    -0.180000       12.0110           0
       772 MEMB     6        POPC     H6X      HAL2     0.900000E-01   1.00800           0
       773 MEMB     6        POPC     H6Y      HAL2     0.900000E-01   1.00800           0
       774 MEMB     6        POPC     C37      CTL2    -0.180000       12.0110           0
       775 MEMB     6        POPC     H7X      HAL2     0.900000E-01   1.00800           0
       776 MEMB     6        POPC     H7Y      HAL2     0.900000E-01   1.00800           0
       777 MEMB     6        POPC     C38      CTL2    -0.180000       12.0110           0
       778 MEMB     6        POPC     H8X      HAL2     0.900000E-01   1.00800           0
       779 MEMB     6        POPC     H8Y      HAL2     0.900000E-01   1.00800           0
       780 MEMB     6        POPC     C39      CTL2    -0.180000       12.0110           0
       781 MEMB     6        POPC     H9X      HAL2     0.900000E-01   1.00800           0
       782 MEMB     6        POPC     H9Y      HAL2     0.900000E-01   1.00800           0
       783 MEMB     6        POPC     C310     CTL2    -0.180000       12.0110           0
       784 MEMB     6        POPC     H10X     HAL2     0.900000E-01   1.00800           0
       785 MEMB     6        POPC     H10Y     HAL2     0.900000E-01   1.00800           0
       786 MEMB     6        POPC     C311     CTL2    -0.180000       12.0110           0
       787 MEMB     6        POPC     H11X     HAL2     0.900000E-01   1.00800           0
       788 MEMB     6        POPC     H11Y     HAL2     0.900000E-01   1.00800           0
       789 MEMB     6        POPC     C312     CTL2    -0.180000       12.0110           0
       790 MEMB     6        POPC     H12X     HAL2     0.900000E-01   1.00800           0
       791 MEMB     6        POPC     H12Y     HAL2     0.900000E-01   1.00800           0
       792 MEMB     6        POPC     C313     CTL2    -0.180000       12.0110           0
       793 MEMB     6        POPC     H13X     HAL2     0.900000E-01   1.00800           0
       794 MEMB     6        POPC     H13Y     HAL2     0.900000E-01   1.00800           0
       795 MEMB     6        POPC     C314     CTL2    -0.180000       12.0110           0
       796 MEMB     6        POPC     H14X     HAL2     0.900000E-01   1.00800           0
       797 MEMB     6        POPC     H14Y     HAL2     0.900000E-01   1.00800           0
       798 MEMB     6        POPC     C315     CTL2    -0.180000       12.0110           0
       799 MEMB     6        POPC     H15X     HAL2     0.900000E-01   1.00800           0
       800 MEMB     6        POPC     H15Y     HAL2     0.900000E-01   1.00800           0
       801 MEMB     6        POPC     C316     CTL3    -0.270000       12.0110           0
       802 MEMB     6        POPC     H16X     HAL3     0.900000E-01   1.00800           0
       803 MEMB     6        POPC     H16Y     HAL3     0.900000E-01   1.00800           0
       804 MEMB     6        POPC     H16Z     HAL3     0.900000E-01   1.00800           0
       805 MEMB     7        POPC     N        NTL     -0.600000       14.0070           0
       806 MEMB     7        POPC     C12      CTL2    -0.100000       12.0110           0
       807 MEMB     7        POPC     H12A     HL       0.250000       1.00800           0
       808 MEMB     7        POPC     H12B     HL       0.250000       1.00800           0
       809 MEMB     7        POPC     C13      CTL5    -0.350000       12.0110           0
       810 MEMB     7        POPC     H13A     HL       0.250000       1.00800           0
       811 MEMB     7        POPC     H13B     HL       0.250000       1.00800           0
       812 MEMB     7        POPC     H13C     HL       0.250000       1.00800           0
       813 MEMB     7        POPC     C14      CTL5    -0.350000       12.0110           0
       814 MEMB     7        POPC     H14A     HL       0.250000       1.00800           0
       815 MEMB     7        POPC     H14B     HL       0.250000       1.00800           0
       816 MEMB     7        POPC     H14C     HL       0.250000       1.00800           0
       817 MEMB     7        POPC     C15      CTL5    -0.350000       12.0110           0
       818 MEMB     7        POPC     H15A     HL       0.250000       1.00800           0
       819 MEMB     7        POPC     H15B     HL       0.250000       1.00800           0
       820 MEMB     7        POPC     H15C     HL       0.250000       1.00800           0
       821 MEMB     7        POPC     C11      CTL2    -0.800000E-01   12.0110           0
       822 MEMB     7        POPC     H11A     HAL2     0.900000E-01   1.00800           0
       823 MEMB     7        POPC     H11B     HAL2     0.900000E-01   1.00800           0
       824 MEMB     7        POPC     P        PL        1.50000       30.9740           0
       825 MEMB     7        POPC     O13      O2L     -0.780000       15.9994           0
       826 MEMB     7        POPC     O14      O2L     -0.780000       15.9994           0
       827 MEMB     7        POPC     O12      OSLP    -0.570000       15.9994           0
       828 MEMB     7        POPC     O11      OSLP    -0.570000       15.9994           0
       829 MEMB     7        POPC     C1       CTL2    -0.800000E-01   12.0110           0
       830 MEMB     7        POPC     HA       HAL2     0.900000E-01   1.00800           0
       831 MEMB     7        POPC     HB       HAL2     0.900000E-01   1.00800           0
       832 MEMB     7        POPC     C2       CTL1     0.170000       12.0110           0
       833 MEMB     7        POPC     HS       HAL1     0.900000E-01   1.00800           0
       834 MEMB     7        POPC     O21      OSL     -0.490000       15.9994           0
       835 MEMB     7        POPC     C21      CL       0.900000       12.0110           0
       836 MEMB     7        POPC     O22      OBL     -0.630000       15.9994           0
       837 MEMB     7        POPC     C22      CTL2    -0.220000       12.0110           0
       838 MEMB     7        POPC     H2R      HAL2     0.900000E-01   1.00800           0
       839 MEMB     7        POPC     H2S      HAL2     0.900000E-01   1.00800           0
       840 MEMB     7        POPC     C3       CTL2     0.800000E-01   12.0110           0
       841 MEMB     7        POPC     HX       HAL2     0.900000E-01   1.00800           0
       842 MEMB     7        POPC     HY       HAL2     0.900000E-01   1.00800           0
       843 MEMB     7        POPC     O31      OSL     -0.490000       15.9994           0
       844 MEMB     7        POPC     C31      CL       0.900000       12.0110           0
       845 MEMB     7        POPC     O32      OBL     -0.630000       15.9994           0
       846 MEMB     7        POPC     C32      CTL2    -0.220000       12.0110           0
       847 MEMB     7        POPC     H2X      HAL2     0.900000E-01   1.00800           0
       848 MEMB     7        POPC     H2Y      HAL2     0.900000E-01   1.00800           0
       849 MEMB     7        POPC     C23      CTL2    -0.180000       12.0110           0
       850 MEMB     7        POPC     H3R      HAL2     0.900000E-01   1.00800           0
       851 MEMB     7        POPC     H3S      HAL2     0.900000E-01   1.00800           0
       852 MEMB     7        POPC     C24      CTL2    -0.180000       12.0110           0
       853 MEMB     7        POPC     H4R      HAL2     0.900000E-01   1.00800           0
       854 MEMB     7        POPC     H4S      HAL2     0.900000E-01   1.00800           0
       855 MEMB     7        POPC     C25      CTL2    -0.180000       12.0110           0
       856 MEMB     7        POPC     H5R      HAL2     0.900000E-01   1.00800           0
       857 MEMB     7        POPC     H5S      HAL2     0.900000E-01   1.00800           0
       858 MEMB     7        POPC     C26      CTL2    -0.180000       12.0110           0
       859 MEMB     7        POPC     H6R      HAL2     0.900000E-01   1.00800           0
       860 MEMB     7        POPC     H6S      HAL2     0.900000E-01   1.00800           0
       861 MEMB     7        POPC     C27      CTL2    -0.180000       12.0110           0
       862 MEMB     7        POPC     H7R      HAL2     0.900000E-01   1.00800           0
       863 MEMB     7        POPC     H7S      HAL2     0.900000E-01   1.00800           0
       864 MEMB     7        POPC     C28      CTL2    -0.180000       12.0110           0
       865 MEMB     7        POPC     H8R      HAL2     0.900000E-01   1.00800           0
       866 MEMB     7        POPC     H8S      HAL2     0.900000E-01   1.00800           0
       867 MEMB     7        POPC     C29      CEL1    -0.150000       12.0110           0
       868 MEMB     7        POPC     H91      HEL1     0.150000       1.00800           0
       869 MEMB     7        POPC     C210     CEL1    -0.150000       12.0110           0
       870 MEMB     7        POPC     H101     HEL1     0.150000       1.00800           0
       871 MEMB     7        POPC     C211     CTL2    -0.180000       12.0110           0
       872 MEMB     7        POPC     H11R     HAL2     0.900000E-01   1.00800           0
       873 MEMB     7        POPC     H11S     HAL2     0.900000E-01   1.00800           0
       874 MEMB     7        POPC     C212     CTL2    -0.180000       12.0110           0
       875 MEMB     7        POPC     H12R     HAL2     0.900000E-01   1.00800           0
       876 MEMB     7        POPC     H12S     HAL2     0.900000E-01   1.00800           0
       877 MEMB     7        POPC     C213     CTL2    -0.180000       12.0110           0
       878 MEMB     7        POPC     H13R     HAL2     0.900000E-01   1.00800           0
       879 MEMB     7        POPC     H13S     HAL2     0.900000E-01   1.00800           0
       880 MEMB     7        POPC     C214     CTL2    -0.180000       12.0110           0
       881 MEMB     7        POPC     H14R     HAL2     0.900000E-01   1.00800           0
       882 MEMB     7        POPC     H14S     HAL2     0.900000E-01   1.00800           0
       883 MEMB     7        POPC     C215     CTL2    -0.180000       12.0110           0
       884 MEMB     7        POPC     H15R     HAL2     0.900000E-01   1.00800           0
       885 MEMB     7        POPC     H15S     HAL2     0.900000E-01   1.00800           0
       886 MEMB     7        POPC     C216     CTL2    -0.180000       12.0110           0
       887 MEMB     7        POPC     H16R     HAL2     0.900000E-01   1.00800           0
       888 MEMB     7        POPC     H16S     HAL2     0.900000E-01   1.00800           0
       889 MEMB     7        POPC     C217     CTL2    -0.180000       12.0110           0
       890 MEMB     7        POPC     H17R     HAL2     0.900000E-01   1.00800           0
       891 MEMB     7        POPC     H17S     HAL2     0.900000E-01   1.00800           0
       892 MEMB     7        POPC     C218     CTL3    -0.270000       12.0110           0
       893 MEMB     7        POPC     H18R     HAL3     0.900000E-01   1.00800           0
       894 MEMB     7        POPC     H18S     HAL3     0.900000E-01   1.00800           0
       895 MEMB     7        POPC     H18T     HAL3     0.900000E-01   1.00800           0
       896 MEMB     7        POPC     C33      CTL2    -0.180000       12.0110           0
       897 MEMB     7        POPC     H3X      HAL2     0.900000E-01   1.00800           0
       898 MEMB     7        POPC     H3Y      HAL2     0.900000E-01   1.00800           0
       899 MEMB     7        POPC     C34      CTL2    -0.180000       12.0110           0
       900 MEMB     7        POPC     H4X      HAL2     0.900000E-01   1.00800           0
       901 MEMB     7        POPC     H4Y      HAL2     0.900000E-01   1.00800           0
       902 MEMB     7        POPC     C35      CTL2    -0.180000       12.0110           0
       903 MEMB     7        POPC     H5X      HAL2     0.900000E-01   1.00800           0
       904 MEMB     7        POPC     H5Y      HAL2     0.900000E-01   1.00800           0
       905 MEMB     7        POPC     C36      CTL2    -0.180000       12.0110           0
       906 MEMB     7        POPC     H6X      HAL2     0.900000E-01   1.00800           0
       907 MEMB     7        POPC     H6Y      HAL2     0.900000E-01   1.00800           0
       908 MEMB     7        POPC     C37      CTL2    -0.180000       12.0110           0
       909 MEMB     7        POPC     H7X      HAL2     0.900000E-01   1.00800           0
       910 MEMB     7        POPC     H7Y      HAL2     0.900000E-01   1.00800           0
       911 MEMB     7        POPC     C38      CTL2    -0.180000       12.0110           0
       912 MEMB     7        POPC     H8X      HAL2     0.900000E-01   1.00800           0
       913 MEMB     7        POPC     H8Y      HAL2     0.900000E-01   1.00800           0
       914 MEMB     7        POPC     C39      CTL2    -0.180000       12.0110           0
       915 MEMB     7        POPC     H9X      HAL2     0.900000E-01   1.00800           0
       916 MEMB     7        POPC     H9Y      HAL2     0.900000E-01   1.00800           0
       917 MEMB     7        POPC     C310     CTL2    -0.180000       12.0110           0
       918 MEMB     7        POPC     H10X     HAL2     0.900000E-01   1.00800           0
       919 MEMB     7        POPC     H10Y     HAL2     0.900000E-01   1.00800           0
       920 MEMB     7        POPC     C311     CTL2    -0.180000       12.0110           0
       921 MEMB     7        POPC     H11X     HAL2     0.900000E-01   1.00800           0
       922 MEMB     7        POPC     H11Y     HAL2     0.900000E-01   1.00800           0
       923 MEMB     7        POPC     C312     CTL2    -0.180000       12.0110           0
       924 MEMB     7        POPC     H12X     HAL2     0.900000E-01   1.00800           0
       925 MEMB     7        POPC     H12Y     HAL2     0.900000E-01   1.00800           0
       926 MEMB     7        POPC     C313     CTL2    -0.180000       12.0110           0
       927 MEMB     7        POPC     H13X     HAL2     0.900000E-01   1.00800           0
       928 MEMB     7        POPC     H13Y     HAL2     0.900000E-01   1.00800           0
       929 MEMB     7        POPC     C314     CTL2    -0.180000       12.0110           0
       930 MEMB     7        POPC     H14X     HAL2     0.900000E-01   1.00800           0
       931 MEMB     7        POPC     H14Y     HAL2     0.900000E-01   1.00800           0
       932 MEMB     7        POPC     C315     CTL2    -0.180000       12.0110           0
       933 MEMB     7        POPC     H15X     HAL2     0.900000E-01   1.00800           0
       934 MEMB     7        POPC     H15Y     HAL2     0.900000E-01   1.00800           0
       935 MEMB     7        POPC     C316     CTL3    -0.270000       12.0110           0
       936 MEMB     7        POPC     H16X     HAL3     0.900000E-01   1.00800           0
       937 MEMB     7        POPC     H16Y     HAL3     0.900000E-01   1.00800           0
       938 MEMB     7        POPC     H16Z     HAL3     0.900000E-01   1.00800           0
       939 MEMB     8        POPC     N        NTL     -0.600000       14.0070           0
       940 MEMB     8        POPC     C12      CTL2    -0.100000       12.0110           0
       941 MEMB     8        POPC     H12A     HL       0.250000       1.00800           0
       942 MEMB     8        POPC     H12B     HL       0.250000       1.00800           0
       943 MEMB     8        POPC     C13      CTL5    -0.350000       12.0110           0
       944 MEMB     8        POPC     H13A     HL       0.250000       1.00800           0
       945 MEMB     8        POPC     H13B     HL       0.250000       1.00800           0
       946 MEMB     8        POPC     H13C     HL       0.250000       1.00800           0
       947 MEMB     8        POPC     C14      CTL5    -0.350000       12.0110           0
       948 MEMB     8        POPC     H14A     HL       0.250000       1.00800           0
       949 MEMB     8        POPC     H14B     HL       0.250000       1.00800           0
       950 MEMB     8        POPC     H14C     HL       0.250000       1.00800           0
       951 MEMB     8        POPC     C15      CTL5    -0.350000       12.0110           0
       952 MEMB     8        POPC     H15A     HL       0.250000       1.00800           0
       953 MEMB     8        POPC     H15B     HL       0.250000       1.00800           0
       954 MEMB     8        POPC     H15C     HL       0.250000       1.00800           0
       955 MEMB     8        POPC     C11      CTL2    -0.800000E-01   12.0110           0
       956 MEMB     8        POPC     H11A     HAL2     0.900000E-01   1.00800           0
       957 MEMB     8        POPC     H11B     HAL2     0.900000E-01   1.00800           0
       958 MEMB     8        POPC     P        PL        1.50000       30.9740           0
       959 MEMB     8        POPC     O13      O2L     -0.780000       15.9994           0
       960 MEMB     8        POPC     O14      O2L     -0.780000       15.9994           0
       961 MEMB     8        POPC     O12      OSLP    -0.570000       15.9994           0
       962 MEMB     8        POPC     O11      OSLP    -0.570000       15.9994           0
       963 MEMB     8        POPC     C1       CTL2    -0.800000E-01   12.0110           0
       964 MEMB     8        POPC     HA       HAL2     0.900000E-01   1.00800           0
       965 MEMB     8        POPC     HB       HAL2     0.900000E-01   1.00800           0
       966 MEMB     8        POPC     C2       CTL1     0.170000       12.0110           0
       967 MEMB     8        POPC     HS       HAL1     0.900000E-01   1.00800           0
       968 MEMB     8        POPC     O21      OSL     -0.490000       15.9994           0
       969 MEMB     8        POPC     C21      CL       0.900000       12.0110           0
       970 MEMB     8        POPC     O22      OBL     -0.630000       15.9994           0
       971 MEMB     8        POPC     C22      CTL2    -0.220000       12.0110           0
       972 MEMB     8        POPC     H2R      HAL2     0.900000E-01   1.00800           0
       973 MEMB     8        POPC     H2S      HAL2     0.900000E-01   1.00800           0
       974 MEMB     8        POPC     C3       CTL2     0.800000E-01   12.0110           0
       975 MEMB     8        POPC     HX       HAL2     0.900000E-01   1.00800           0
       976 MEMB     8        POPC     HY       HAL2     0.900000E-01   1.00800           0
       977 MEMB     8        POPC     O31      OSL     -0.490000       15.9994           0
       978 MEMB     8        POPC     C31      CL       0.900000       12.0110           0
       979 MEMB     8        POPC     O32      OBL     -0.630000       15.9994           0
       980 MEMB     8        POPC     C32      CTL2    -0.220000       12.0110           0
       981 MEMB     8        POPC     H2X      HAL2     0.900000E-01   1.00800           0
       982 MEMB     8        POPC     H2Y      HAL2     0.900000E-01   1.00800           0
       983 MEMB     8        POPC     C23      CTL2    -0.180000       12.0110           0
       984 MEMB     8        POPC     H3R      HAL2     0.900000E-01   1.00800           0
       985 MEMB     8        POPC     H3S      HAL2     0.900000E-01   1.00800           0
       986 MEMB     8        POPC     C24      CTL2    -0.180000       12.0110           0
       987 MEMB     8        POPC     H4R      HAL2     0.900000E-01   1.00800           0
       988 MEMB     8        POPC     H4S      HAL2     0.900000E-01   1.00800           0
       989 MEMB     8        POPC     C25      CTL2    -0.180000       12.0110           0
       990 MEMB     8        POPC     H5R      HAL2     0.900000E-01   1.00800           0
       991 MEMB     8        POPC     H5S      HAL2     0.900000E-01   1.00800           0
       992 MEMB     8        POPC     C26      CTL2    -0.180000       12.0110           0
       993 MEMB     8        POPC     H6R      HAL2     0.900000E-01   1.00800           0
       994 MEMB     8        POPC     H6S      HAL2     0.900000E-01   1.00800           0
       995 MEMB     8        POPC     C27      CTL2    -0.180000       12.0110           0
       996 MEMB     8        POPC     H7R      HAL2     0.900000E-01   1.00800           0
       997 MEMB     8        POPC     H7S      HAL2     0.900000E-01   1.00800           0
       998 MEMB     8        POPC     C28      CTL2    -0.180000       12.0110           0
       999 MEMB     8        POPC     H8R      HAL2     0.900000E-01   1.00800           0
      1000 MEMB     8        POPC     H8S      HAL2     0.900000E-01   1.00800           0
      1001 MEMB     8        POPC     C29      CEL1    -0.150000       12.0110           0
      1002 MEMB     8        POPC     H91      HEL1     0.150000       1.00800           0
      1003 MEMB     8        POPC     C210     CEL1    -0.150000       12.0110           0
      1004 MEMB     8        POPC     H101     HEL1     0.150000       1.00800           0
      1005 MEMB     8        POPC     C211     CTL2    -0.180000       12.0110           0
      1006 MEMB     8        POPC     H11R     HAL2     0.900000E-01   1.00800           0
      1007 MEMB     8        POPC     H11S     HAL2     0.900000E-01   1.00800           0
      1008 MEMB     8        POPC     C212     CTL2    -0.180000       12.0110           0
      1009 MEMB     8        POPC     H12R     HAL2     0.900000E-01   1.00800           0
      1010 MEMB     8        POPC     H12S     HAL2     0.900000E-01   1.00800           0
      1011 MEMB     8        POPC     C213     CTL2    -0.180000       12.0110           0
      1012 MEMB     8        POPC     H13R     HAL2     0.900000E-01   1.00800           0
      1013 MEMB     8        POPC     H13S     HAL2     0.900000E-01   1.00800           0
      1014 MEMB     8        POPC     C214     CTL2    -0.180000       12.0110           0
      1015 MEMB     8        POPC     H14R     HAL2     0.900000E-01   1.00800           0
      1016 MEMB     8        POPC     H14S     HAL2     0.900000E-01   1.00800           0
      1017 MEMB     8        POPC     C215     CTL2    -0.180000       12.0110           0
      1018 MEMB     8        POPC     H15R     HAL2     0.900000E-01   1.00800           0
      1019 MEMB     8        POPC     H15S     HAL2     0.900000E-01   1.00800           0
      1020 MEMB     8        POPC     C216     CTL2    -0.180000       12.0110           0
      1021 MEMB     8        POPC     H16R     HAL2     0.900000E-01   1.00800           0
      1022 MEMB     8        POPC     H16S     HAL2     0.900000E-01   1.00800           0
      1023 MEMB     8        POPC     C217     CTL2    -0.180000       12.0110           0
      1024 MEMB     8        POPC     H17R     HAL2     0.900000E-01   1.00800           0
      1025 MEMB     8        POPC     H17S     HAL2     0.900000E-01   1.00800           0
      1026 MEMB     8        POPC     C218     CTL3    -0.270000       12.0110           0
      1027 MEMB     8        POPC     H18R     HAL3     0.900000E-01   1.00800           0
      1028 MEMB     8        POPC     H18S     HAL3     0.900000E-01   1.00800           0
      1029 MEMB     8        POPC     H18T     HAL3     0.900000E-01   1.00800           0
      1030 MEMB     8        POPC     C33      CTL2    -0.180000       12.0110           0
      1031 MEMB     8        POPC     H3X      HAL2     0.900000E-01   1.00800           0
      1032 MEMB     8        POPC     H3Y      HAL2     0.900000E-01   1.00800           0
      1033 MEMB     8        POPC     C34      CTL2    -0.180000       12.0110           0
      1034 MEMB     8        POPC     H4X      HAL2     0.900000E-01   1.00800           0
      1035 MEMB     8        POPC     H4Y      HAL2     0.900000E-01   1.00800           0
      1036 MEMB     8        POPC     C35      CTL2    -0.180000       12.0110           0
      1037 MEMB     8        POPC     H5X      HAL2     0.900000E-01   1.00800           0
      1038 MEMB     8        POPC     H5Y      HAL2     0.900000E-01   1.00800           0
      1039 MEMB     8        POPC     C36      CTL2    -0.180000       12.0110           0
      1040 MEMB     8        POPC     H6X      HAL2     0.900000E-01   1.00800           0
      1041 MEMB     8        POPC     H6Y      HAL2     0.900000E-01   1.00800           0
      1042 MEMB     8        POPC     C37      CTL2    -0.180000       12.0110           0
      1043 MEMB     8        POPC     H7X      HAL2     0.900000E-01   1.00800           0
      1044 MEMB     8        POPC     H7Y      HAL2     0.900000E-01   1.00800           0
      1045 MEMB     8        POPC     C38      CTL2    -0.180000       12.0110           0
      1046 MEMB     8        POPC     H8X      HAL2     0.900000E-01   1.00800           0
      1047 MEMB     8        POPC     H8Y      HAL2     0.900000E-01   1.00800           0
      1048 MEMB     8        POPC     C39      CTL2    -0.180000       12.0110           0
      1049 MEMB     8        POPC     H9X      HAL2     0.900000E-01   1.00800           0
      1050 MEMB     8        POPC     H9Y      HAL2     0.900000E-01   1.00800           0
      1051 MEMB     8        POPC     C310     CTL2    -0.180000       12.0110           0
      1052 MEMB     8        POPC     H10X     HAL2     0.900000E-01   1.00800           0
      1053 MEMB     8        POPC     H10Y     HAL2     0.900000E-01   1.00800           0
      1054 MEMB     8        POPC     C311     CTL2    -0.180000       12.0110           0
      1055 MEMB     8        POPC     H11X     HAL2     0.900000E-01   1.00800           0
      1056 MEMB     8        POPC     H11Y     HAL2     0.900000E-01   1.00800           0
      1057 MEMB     8        POPC     C312     CTL2    -0.180000       12.0110           0
      1058 MEMB     8        POPC     H12X     HAL2     0.900000E-01   1.00800           0
      1059 MEMB     8        POPC     H12Y     HAL2     0.900000E-01   1.00800           0
      1060 MEMB     8        POPC     C313     CTL2    -0.180000       12.0110           0
      1061 MEMB     8        POPC     H13X     HAL2     0.900000E-01   1.00800           0
      1062 MEMB     8        POPC     H13Y     HAL2     0.900000E-01   1.00800           0
      1063 MEMB     8        POPC     C314     CTL2    -0.180000       12.0110           0
      1064 MEMB     8        POPC     H14X     HAL2     0.900000E-01   1.00800           0
      1065 MEMB     8        POPC     H14Y     HAL2     0.900000E-01   1.00800           0
      1066 MEMB     8        POPC     C315     CTL2    -0.180000       12.0110           0
      1067 MEMB     8        POPC     H15X     HAL2     0.900000E-01   1.00800           0
      1068 MEMB     8        POPC     H15Y     HAL2     0.900000E-01   1.00800           0
      1069 MEMB     8        POPC     C316     CTL3    -0.270000       12.0110           0
      1070 MEMB     8        POPC     H16X     HAL3     0.900000E-01   1.00800           0
      1071 MEMB     8        POPC     H16Y     HAL3     0.900000E-01   1.00800           0
      1072 MEMB     8        POPC     H16Z     HAL3     0.900000E-01   1.00800           0
      1073 MEMB     9        POPC     N        NTL     -0.600000       14.0070           0
      1074 MEMB     9        POPC     C12      CTL2    -0.100000       12.0110           0
      1075 MEMB     9        POPC     H12A     HL       0.250000       1.00800           0
      1076 MEMB     9        POPC     H12B     HL       0.250000       1.00800           0
      1077 MEMB     9        POPC     C13      CTL5    -0.350000       12.0110           0
      1078 MEMB     9        POPC     H13A     HL       0.250000       1.00800           0
      1079 MEMB     9        POPC     H13B     HL       0.250000       1.00800           0
      1080 MEMB     9        POPC     H13C     HL       0.250000       1.00800           0
      1081 MEMB     9        POPC     C14      CTL5    -0.350000       12.0110           0
      1082 MEMB     9        POPC     H14A     HL       0.250000       1.00800           0
      1083 MEMB     9        POPC     H14B     HL       0.250000       1.00800           0
      1084 MEMB     9        POPC     H14C     HL       0.250000       1.00800           0
      1085 MEMB     9        POPC     C15      CTL5    -0.350000       12.0110           0
      1086 MEMB     9        POPC     H15A     HL       0.250000       1.00800           0
      1087 MEMB     9        POPC     H15B     HL       0.250000       1.00800           0
      1088 MEMB     9        POPC     H15C     HL       0.250000       1.00800           0
      1089 MEMB     9        POPC     C11      CTL2    -0.800000E-01   12.0110           0
      1090 MEMB     9        POPC     H11A     HAL2     0.900000E-01   1.00800           0
      1091 MEMB     9        POPC     H11B     HAL2     0.900000E-01   1.00800           0
      1092 MEMB     9        POPC     P        PL        1.50000       30.9740           0
      1093 MEMB     9        POPC     O13      O2L     -0.780000       15.9994           0
      1094 MEMB     9        POPC     O14      O2L     -0.780000       15.9994           0
      1095 MEMB     9        POPC     O12      OSLP    -0.570000       15.9994           0
      1096 MEMB     9        POPC     O11      OSLP    -0.570000       15.9994           0
      1097 MEMB     9        POPC     C1       CTL2    -0.800000E-01   12.0110           0
      1098 MEMB     9        POPC     HA       HAL2     0.900000E-01   1.00800           0
      1099 MEMB     9        POPC     HB       HAL2     0.900000E-01   1.00800           0
      1100 MEMB     9        POPC     C2       CTL1     0.170000       12.0110           0
      1101 MEMB     9        POPC     HS       HAL1     0.900000E-01   1.00800           0
      1102 MEMB     9        POPC     O21      OSL     -0.490000       15.9994           0
      1103 MEMB     9        POPC     C21      CL       0.900000       12.0110           0
      1104 MEMB     9        POPC     O22      OBL     -0.630000       15.9994           0
      1105 MEMB     9        POPC     C22      CTL2    -0.220000       12.0110           0
      1106 MEMB     9        POPC     H2R      HAL2     0.900000E-01   1.00800           0
      1107 MEMB     9        POPC     H2S      HAL2     0.900000E-01   1.00800           0
      1108 MEMB     9        POPC     C3       CTL2     0.800000E-01   12.0110           0
      1109 MEMB     9        POPC     HX       HAL2     0.900000E-01   1.00800           0
      1110 MEMB     9        POPC     HY       HAL2     0.900000E-01   1.00800           0
      1111 MEMB     9        POPC     O31      OSL     -0.490000       15.9994           0
      1112 MEMB     9        POPC     C31      CL       0.900000       12.0110           0
      1113 MEMB     9        POPC     O32      OBL     -0.630000       15.9994           0
      1114 MEMB     9        POPC     C32      CTL2    -0.220000       12.0110           0
      1115 MEMB     9        POPC     H2X      HAL2     0.900000E-01   1.00800           0
      1116 MEMB     9        POPC     H2Y      HAL2     0.900000E-01   1.00800           0
      1117 MEMB     9        POPC     C23      CTL2    -0.180000       12.0110           0
      1118 MEMB     9        POPC     H3R      HAL2     0.900000E-01   1.00800           0
      1119 MEMB     9        POPC     H3S      HAL2     0.900000E-01   1.00800           0
      1120 MEMB     9        POPC     C24      CTL2    -0.180000       12.0110           0
      1121 MEMB     9        POPC     H4R      HAL2     0.900000E-01   1.00800           0
      1122 MEMB     9        POPC     H4S      HAL2     0.900000E-01   1.00800           0
      1123 MEMB     9        POPC     C25      CTL2    -0.180000       12.0110           0
      1124 MEMB     9        POPC     H5R      HAL2     0.900000E-01   1.00800           0
      1125 MEMB     9        POPC     H5S      HAL2     0.900000E-01   1.00800           0
      1126 MEMB     9        POPC     C26      CTL2    -0.180000       12.0110           0
      1127 MEMB     9        POPC     H6R      HAL2     0.900000E-01   1.00800           0
      1128 MEMB     9        POPC     H6S      HAL2     0.900000E-01   1.00800           0
      1129 MEMB     9        POPC     C27      CTL2    -0.180000       12.0110           0
      1130 MEMB     9        POPC     H7R      HAL2     0.900000E-01   1.00800           0
      1131 MEMB     9        POPC     H7S      HAL2     0.900000E-01   1.00800           0
      1132 MEMB     9        POPC     C28      CTL2    -0.180000       12.0110           0
      1133 MEMB     9        POPC     H8R      HAL2     0.900000E-01   1.00800           0
      1134 MEMB     9        POPC     H8S      HAL2     0.900000E-01   1.00800           0
      1135 MEMB     9        POPC     C29      CEL1    -0.150000       12.0110           0
      1136 MEMB     9        POPC     H91      HEL1     0.150000       1.00800           0
      1137 MEMB     9        POPC     C210     CEL1    -0.150000       12.0110           0
      1138 MEMB     9        POPC     H101     HEL1     0.150000       1.00800           0
      1139 MEMB     9        POPC     C211     CTL2    -0.180000       12.0110           0
      1140 MEMB     9        POPC     H11R     HAL2     0.900000E-01   1.00800           0
      1141 MEMB     9        POPC     H11S     HAL2     0.900000E-01   1.00800           0
      1142 MEMB     9        POPC     C212     CTL2    -0.180000       12.0110           0
      1143 MEMB     9        POPC     H12R     HAL2     0.900000E-01   1.00800           0
      1144 MEMB     9        POPC     H12S     HAL2     0.900000E-01   1.00800           0
      1145 MEMB     9        POPC     C213     CTL2    -0.180000       12.0110           0
      1146 MEMB     9        POPC     H13R     HAL2     0.900000E-01   1.00800           0
      1147 MEMB     9        POPC     H13S     HAL2     0.900000E-01   1.00800           0
      1148 MEMB     9        POPC     C214     CTL2    -0.180000       12.0110           0
      1149 MEMB     9        POPC     H14R     HAL2     0.900000E-01   1.00800           0
      1150 MEMB     9        POPC     H14S     HAL2     0.900000E-01   1.00800           0
      1151 MEMB     9        POPC     C215     CTL2    -0.180000       12.0110           0
      1152 MEMB     9        POPC     H15R     HAL2     0.900000E-01   1.00800           0
      1153 MEMB     9        POPC     H15S     HAL2     0.900000E-01   1.00800           0
      1154 MEMB     9        POPC     C216     CTL2    -0.180000       12.0110           0
      1155 MEMB     9        POPC     H16R     HAL2     0.900000E-01   1.00800           0
      1156 MEMB     9        POPC     H16S     HAL2     0.900000E-01   1.00800           0
      1157 MEMB     9        POPC     C217     CTL2    -0.180000       12.0110           0
      1158 MEMB     9        POPC     H17R     HAL2     0.900000E-01   1.00800           0
      1159 MEMB     9        POPC     H17S     HAL2     0.900000E-01   1.00800           0
      1160 MEMB     9        POPC     C218     CTL3    -0.270000       12.0110           0
      1161 MEMB     9        POPC     H18R     HAL3     0.900000E-01   1.00800           0
      1162 MEMB     9        POPC     H18S     HAL3     0.900000E-01   1.00800           0
      1163 MEMB     9        POPC     H18T     HAL3     0.900000E-01   1.00800           0
      1164 MEMB     9        POPC     C33      CTL2    -0.180000       12.0110           0
      1165 MEMB     9        POPC     H3X      HAL2     0.900000E-01   1.00800           0
      1166 MEMB     9        POPC     H3Y      HAL2     0.900000E-01   1.00800           0
      1167 MEMB     9        POPC     C34      CTL2    -0.180000       12.0110           0
      1168 MEMB     9        POPC     H4X      HAL2     0.900000E-01   1.00800           0
      1169 MEMB     9        POPC     H4Y      HAL2     0.900000E-01   1.00800           0
      1170 MEMB     9        POPC     C35      CTL2    -0.180000       12.0110           0
      1171 MEMB     9        POPC     H5X      HAL2     0.900000E-01   1.00800           0
      1172 MEMB     9        POPC     H5Y      HAL2     0.900000E-01   1.00800           0
      1173 MEMB     9        POPC     C36      CTL2    -0.180000       12.0110           0
      1174 MEMB     9        POPC     H6X      HAL2     0.900000E-01   1.00800           0
      1175 MEMB     9        POPC     H6Y      HAL2     0.900000E-01   1.00800           0
      1176 MEMB     9        POPC     C37      CTL2    -0.180000       12.0110           0
      1177 MEMB     9        POPC     H7X      HAL2     0.900000E-01   1.00800           0
      1178 MEMB     9        POPC     H7Y      HAL2     0.900000E-01   1.00800           0
      1179 MEMB     9        POPC     C38      CTL2    -0.180000       12.0110           0
      1180 MEMB     9        POPC     H8X      HAL2     0.900000E-01   1.00800           0
      1181 MEMB     9        POPC     H8Y      HAL2     0.900000E-01   1.00800           0
      1182 MEMB     9        POPC     C39      CTL2    -0.180000       12.0110           0
      1183 MEMB     9        POPC     H9X      HAL2     0.900000E-01   1.00800           0
      1184 MEMB     9        POPC     H9Y      HAL2     0.900000E-01   1.00800           0
      1185 MEMB     9        POPC     C310     CTL2    -0.180000       12.0110           0
      1186 MEMB     9        POPC     H10X     HAL2     0.900000E-01   1.00800           0
      1187 MEMB     9        POPC     H10Y     HAL2     0.900000E-01   1.00800           0
      1188 MEMB     9        POPC     C311     CTL2    -0.180000       12.0110           0
      1189 MEMB     9        POPC     H11X     HAL2     0.900000E-01   1.00800           0
      1190 MEMB     9        POPC     H11Y     HAL2     0.900000E-01   1.00800           0
      1191 MEMB     9        POPC     C312     CTL2    -0.180000       12.0110           0
      1192 MEMB     9        POPC     H12X     HAL2     0.900000E-01   1.00800           0
      1193 MEMB     9        POPC     H12Y     HAL2     0.900000E-01   1.00800           0
      1194 MEMB     9        POPC     C313     CTL2    -0.180000       12.0110           0
      1195 MEMB     9        POPC     H13X     HAL2     0.900000E-01   1.00800           0
      1196 MEMB     9        POPC     H13Y     HAL2     0.900000E-01   1.00800           0
      1197 MEMB     9        POPC     C314     CTL2    -0.180000       12.0110           0
      1198 MEMB     9        POPC     H14X     HAL2     0.900000E-01   1.00800           0
      1199 MEMB     9        POPC     H14Y     HAL2     0.900000E-01   1.00800           0
      1200 MEMB     9        POPC     C315     CTL2    -0.180000       12.0110           0
      1201 MEMB     9        POPC     H15X     HAL2     0.900000E-01   1.00800           0
      1202 MEMB     9        POPC     H15Y     HAL2     0.900000E-01   1.00800           0
      1203 MEMB     9        POPC     C316     CTL3    -0.270000       12.0110           0
      1204 MEMB     9        POPC     H16X     HAL3     0.900000E-01   1.00800           0
      1205 MEMB     9        POPC     H16Y     HAL3     0.900000E-01   1.00800           0
      1206 MEMB     9        POPC     H16Z     HAL3     0.900000E-01   1.00800           0
      1207 MEMB     10       POPC     N        NTL     -0.600000       14.0070           0
      1208 MEMB     10       POPC     C12      CTL2    -0.100000       12.0110           0
      1209 MEMB     10       POPC     H12A     HL       0.250000       1.00800           0
      1210 MEMB     10       POPC     H12B     HL       0.250000       1.00800           0
      1211 MEMB     10       POPC     C13      CTL5    -0.350000       12.0110           0
      1212 MEMB     10       POPC     H13A     HL       0.250000       1.00800           0
      1213 MEMB     10       POPC     H13B     HL       0.250000       1.00800           0
      1214 MEMB     10       POPC     H13C     HL       0.250000       1.00800           0
      1215 MEMB     10       POPC     C14      CTL5    -0.350000       12.0110           0
      1216 MEMB     10       POPC     H14A     HL       0.250000       1.00800           0
      1217 MEMB     10       POPC     H14B     HL       0.250000       1.00800           0
      1218 MEMB     10       POPC     H14C     HL       0.250000       1.00800           0
      1219 MEMB     10       POPC     C15      CTL5    -0.350000       12.0110           0
      1220 MEMB     10       POPC     H15A     HL       0.250000       1.00800           0
      1221 MEMB     10       POPC     H15B     HL       0.250000       1.00800           0
      1222 MEMB     10       POPC     H15C     HL       0.250000       1.00800           0
      1223 MEMB     10       POPC     C11      CTL2    -0.800000E-01   12.0110           0
      1224 MEMB     10       POPC     H11A     HAL2     0.900000E-01   1.00800           0
      1225 MEMB     10       POPC     H11B     HAL2     0.900000E-01   1.00800           0
      1226 MEMB     10       POPC     P        PL        1.50000       30.9740           0
      1227 MEMB     10       POPC     O13      O2L     -0.780000       15.9994           0
      1228 MEMB     10       POPC     O14      O2L     -0.780000       15.9994           0
      1229 MEMB     10       POPC     O12      OSLP    -0.570000       15.9994           0
      1230 MEMB     10       POPC     O11      OSLP    -0.570000       15.9994           0
      1231 MEMB     10       POPC     C1       CTL2    -0.800000E-01   12.0110           0
      1232 MEMB     10       POPC     HA       HAL2     0.900000E-01   1.00800           0
      1233 MEMB     10       POPC     HB       HAL2     0.900000E-01   1.00800           0
      1234 MEMB     10       POPC     C2       CTL1     0.170000       12.0110           0
      1235 MEMB     10       POPC     HS       HAL1     0.900000E-01   1.00800           0
      1236 MEMB     10       POPC     O21      OSL     -0.490000       15.9994           0
      1237 MEMB     10       POPC     C21      CL       0.900000       12.0110           0
      1238 MEMB     10       POPC     O22      OBL     -0.630000       15.9994           0
      1239 MEMB     10       POPC     C22      CTL2    -0.220000       12.0110           0
      1240 MEMB     10       POPC     H2R      HAL2     0.900000E-01   1.00800           0
      1241 MEMB     10       POPC     H2S      HAL2     0.900000E-01   1.00800           0
      1242 MEMB     10       POPC     C3       CTL2     0.800000E-01   12.0110           0
      1243 MEMB     10       POPC     HX       HAL2     0.900000E-01   1.00800           0
      1244 MEMB     10       POPC     HY       HAL2     0.900000E-01   1.00800           0
      1245 MEMB     10       POPC     O31      OSL     -0.490000       15.9994           0
      1246 MEMB     10       POPC     C31      CL       0.900000       12.0110           0
      1247 MEMB     10       POPC     O32      OBL     -0.630000       15.9994           0
      1248 MEMB     10       POPC     C32      CTL2    -0.220000       12.0110           0
      1249 MEMB     10       POPC     H2X      HAL2     0.900000E-01   1.00800           0
      1250 MEMB     10       POPC     H2Y      HAL2     0.900000E-01   1.00800           0
      1251 MEMB     10       POPC     C23      CTL2    -0.180000       12.0110           0
      1252 MEMB     10       POPC     H3R      HAL2     0.900000E-01   1.00800           0
      1253 MEMB     10       POPC     H3S      HAL2     0.900000E-01   1.00800           0
      1254 MEMB     10       POPC     C24      CTL2    -0.180000       12.0110           0
      1255 MEMB     10       POPC     H4R      HAL2     0.900000E-01   1.00800           0
      1256 MEMB     10       POPC     H4S      HAL2     0.900000E-01   1.00800           0
      1257 MEMB     10       POPC     C25      CTL2    -0.180000       12.0110           0
      1258 MEMB     10       POPC     H5R      HAL2     0.900000E-01   1.00800           0
      1259 MEMB     10       POPC     H5S      HAL2     0.900000E-01   1.00800           0
      1260 MEMB     10       POPC     C26      CTL2    -0.180000       12.0110           0
      1261 MEMB     10       POPC     H6R      HAL2     0.900000E-01   1.00800           0
      1262 MEMB     10       POPC     H6S      HAL2     0.900000E-01   1.00800           0
      1263 MEMB     10       POPC     C27      CTL2    -0.180000       12.0110           0
      1264 MEMB     10       POPC     H7R      HAL2     0.900000E-01   1.00800           0
      1265 MEMB     10       POPC     H7S      HAL2     0.900000E-01   1.00800           0
      1266 MEMB     10       POPC     C28      CTL2    -0.180000       12.0110           0
      1267 MEMB     10       POPC     H8R      HAL2     0.900000E-01   1.00800           0
      1268 MEMB     10       POPC     H8S      HAL2     0.900000E-01   1.00800           0
      1269 MEMB     10       POPC     C29      CEL1    -0.150000       12.0110           0
      1270 MEMB     10       POPC     H91      HEL1     0.150000       1.00800           0
      1271 MEMB     10       POPC     C210     CEL1    -0.150000       12.0110           0
      1272 MEMB     10       POPC     H101     HEL1     0.150000       1.00800           0
      1273 MEMB     10       POPC     C211     CTL2    -0.180000       12.0110           0
      1274 MEMB     10       POPC     H11R     HAL2     0.900000E-01   1.00800           0
      1275 MEMB     10       POPC     H11S     HAL2     0.900000E-01   1.00800           0
      1276 MEMB     10       POPC     C212     CTL2    -0.180000       12.0110           0
      1277 MEMB     10       POPC     H12R     HAL2     0.900000E-01   1.00800           0
      1278 MEMB     10       POPC     H12S     HAL2     0.900000E-01   1.00800           0
      1279 MEMB     10       POPC     C213     CTL2    -0.180000       12.0110           0
      1280 MEMB     10       POPC     H13R     HAL2     0.900000E-01   1.00800           0
      1281 MEMB     10       POPC     H13S     HAL2     0.900000E-01   1.00800           0
      1282 MEMB     10       POPC     C214     CTL2    -0.180000       12.0110           0
      1283 MEMB     10       POPC     H14R     HAL2     0.900000E-01   1.00800           0
      1284 MEMB     10       POPC     H14S     HAL2     0.900000E-01   1.00800           0
      1285 MEMB     10       POPC     C215     CTL2    -0.180000       12.0110           0
      1286 MEMB     10       POPC     H15R     HAL2     0.900000E-01   1.00800           0
      1287 MEMB     10       POPC     H15S     HAL2     0.900000E-01   1.00800           0
      1288 MEMB     10       POPC     C216     CTL2    -0.180000       12.0110           0
      1289 MEMB     10       POPC     H16R     HAL2     0.900000E-01   1.00800           0
      1290 MEMB     10       POPC     H16S     HAL2     0.900000E-01   1.00800           0
      1291 MEMB     10       POPC     C217     CTL2    -0.180000       12.0110           0
      1292 MEMB     10       POPC     H17R     HAL2     0.900000E-01   1.00800           0
      1293 MEMB     10       POPC     H17S     HAL2     0.900000E-01   1.00800           0
      1294 MEMB     10       POPC     C218     CTL3    -0.270000       12.0110           0
      1295 MEMB     10       POPC     H18R     HAL3     0.900000E-01   1.00800           0
      1296 MEMB     10       POPC     H18S     HAL3     0.900000E-01   1.00800           0
      1297 MEMB     10       POPC     H18T     HAL3     0.900000E-01   1.00800           0
      1298 MEMB     10       POPC     C33      CTL2    -0.180000       12.0110           0
      1299 MEMB     10       POPC     H3X      HAL2     0.900000E-01   1.00800           0
      1300 MEMB     10       POPC     H3Y      HAL2     0.900000E-01   1.00800           0
      1301 MEMB     10       POPC     C34      CTL2    -0.180000       12.0110           0
      1302 MEMB     10       POPC     H4X      HAL2     0.900000E-01   1.00800           0
      1303 MEMB     10       POPC     H4Y      HAL2     0.900000E-01   1.00800           0
      1304 MEMB     10       POPC     C35      CTL2    -0.180000       12.0110           0
      1305 MEMB     10       POPC     H5X      HAL2     0.900000E-01   1.00800           0
      1306 MEMB     10       POPC     H5Y      HAL2     0.900000E-01   1.00800           0
      1307 MEMB     10       POPC     C36      CTL2    -0.180000       12.0110           0
      1308 MEMB     10       POPC     H6X      HAL2     0.900000E-01   1.00800           0
      1309 MEMB     10       POPC     H6Y      HAL2     0.900000E-01   1.00800           0
      1310 MEMB     10       POPC     C37      CTL2    -0.180000       12.0110           0
      1311 MEMB     10       POPC     H7X      HAL2     0.900000E-01   1.00800           0
      1312 MEMB     10       POPC     H7Y      HAL2     0.900000E-01   1.00800           0
      1313 MEMB     10       POPC     C38      CTL2    -0.180000       12.0110           0
      1314 MEMB     10       POPC     H8X      HAL2     0.900000E-01   1.00800           0
      1315 MEMB     10       POPC     H8Y      HAL2     0.900000E-01   1.00800           0
      1316 MEMB     10       POPC     C39      CTL2    -0.180000       12.0110           0
      1317 MEMB     10       POPC     H9X      HAL2     0.900000E-01   1.00800           0
      1318 MEMB     10       POPC     H9Y      HAL2     0.900000E-01   1.00800           0
      1319 MEMB     10       POPC     C310     CTL2    -0.180000       12.0110           0
      1320 MEMB     10       POPC     H10X     HAL2     0.900000E-01   1.00800           0
      1321 MEMB     10       POPC     H10Y     HAL2     0.900000E-01   1.00800           0
      1322 MEMB     10       POPC     C311     CTL2    -0.180000       12.0110           0
      1323 MEMB     10       POPC     H11X     HAL2     0.900000E-01   1.00800           0
      1324 MEMB     10       POPC     H11Y     HAL2     0.900000E-01   1.00800           0
      1325 MEMB     10       POPC     C312     CTL2    -0.180000       12.0110           0
      1326 MEMB     10       POPC     H12X     HAL2     0.900000E-01   1.00800           0
      1327 MEMB     10       POPC     H12Y     HAL2     0.900000E-01   1.00800           0
      1328 MEMB     10       POPC     C313     CTL2    -0.180000       12.0110           0
      1329 MEMB     10       POPC     H13X     HAL2     0.900000E-01   1.00800           0
      1330 MEMB     10       POPC     H13Y     HAL2     0.900000E-01   1.00800           0
      1331 MEMB     10       POPC     C314     CTL2    -0.180000       12.0110           0
      1332 MEMB     10       POPC     H14X     HAL2     0.900000E-01   1.00800           0
      1333 MEMB     10       POPC     H14Y     HAL2     0.900000E-01   1.00800           0
      1334 MEMB     10       POPC     C315     CTL2    -0.180000       12.0110           0
      1335 MEMB     10       POPC     H15X     HAL2     0.900000E-01   1.00800           0
      1336 MEMB     10       POPC     H15Y     HAL2     0.900000E-01   1.00800           0
      1337 MEMB     10       POPC     C316     CTL3    -0.270000       12.0110           0
      1338 MEMB     10       POPC     H16X     HAL3     0.900000E-01   1.00800           0
      1339 MEMB     10       POPC     H16Y     HAL3     0.900000E-01   1.00800           0
      1340 MEMB     10       POPC     H16Z     HAL3     0.900000E-01   1.00800           0
      1341 MEMB     11       POPC     N        NTL     -0.600000       14.0070           0
      1342 MEMB     11       POPC     C12      CTL2    -0.100000       12.0110           0
      1343 MEMB     11       POPC     H12A     HL       0.250000       1.00800           0
      1344 MEMB     11       POPC     H12B     HL       0.250000       1.00800           0
      1345 MEMB     11       POPC     C13      CTL5    -0.350000       12.0110           0
      1346 MEMB     11       POPC     H13A     HL       0.250000       1.00800           0
      1347 MEMB     11       POPC     H13B     HL       0.250000       1.00800           0
      1348 MEMB     11       POPC     H13C     HL       0.250000       1.00800           0
      1349 MEMB     11       POPC     C14      CTL5    -0.350000       12.0110           0
      1350 MEMB     11       POPC     H14A     HL       0.250000       1.00800           0
      1351 MEMB     11       POPC     H14B     HL       0.250000       1.00800           0
      1352 MEMB     11       POPC     H14C     HL       0.250000       1.00800           0
      1353 MEMB     11       POPC     C15      CTL5    -0.350000       12.0110           0
      1354 MEMB     11       POPC     H15A     HL       0.250000       1.00800           0
      1355 MEMB     11       POPC     H15B     HL       0.250000       1.00800           0
      1356 MEMB     11       POPC     H15C     HL       0.250000       1.00800           0
      1357 MEMB     11       POPC     C11      CTL2    -0.800000E-01   12.0110           0
      1358 MEMB     11       POPC     H11A     HAL2     0.900000E-01   1.00800           0
      1359 MEMB     11       POPC     H11B     HAL2     0.900000E-01   1.00800           0
      1360 MEMB     11       POPC     P        PL        1.50000       30.9740           0
      1361 MEMB     11       POPC     O13      O2L     -0.780000       15.9994           0
      1362 MEMB     11       POPC     O14      O2L     -0.780000       15.9994           0
      1363 MEMB     11       POPC     O12      OSLP    -0.570000       15.9994           0
      1364 MEMB     11       POPC     O11      OSLP    -0.570000       15.9994           0
      1365 MEMB     11       POPC     C1       CTL2    -0.800000E-01   12.0110           0
      1366 MEMB     11       POPC     HA       HAL2     0.900000E-01   1.00800           0
      1367 MEMB     11       POPC     HB       HAL2     0.900000E-01   1.00800           0
      1368 MEMB     11       POPC     C2       CTL1     0.170000       12.0110           0
      1369 MEMB     11       POPC     HS       HAL1     0.900000E-01   1.00800           0
      1370 MEMB     11       POPC     O21      OSL     -0.490000       15.9994           0
      1371 MEMB     11       POPC     C21      CL       0.900000       12.0110           0
      1372 MEMB     11       POPC     O22      OBL     -0.630000       15.9994           0
      1373 MEMB     11       POPC     C22      CTL2    -0.220000       12.0110           0
      1374 MEMB     11       POPC     H2R      HAL2     0.900000E-01   1.00800           0
      1375 MEMB     11       POPC     H2S      HAL2     0.900000E-01   1.00800           0
      1376 MEMB     11       POPC     C3       CTL2     0.800000E-01   12.0110           0
      1377 MEMB     11       POPC     HX       HAL2     0.900000E-01   1.00800           0
      1378 MEMB     11       POPC     HY       HAL2     0.900000E-01   1.00800           0
      1379 MEMB     11       POPC     O31      OSL     -0.490000       15.9994           0
      1380 MEMB     11       POPC     C31      CL       0.900000       12.0110           0
      1381 MEMB     11       POPC     O32      OBL     -0.630000       15.9994           0
      1382 MEMB     11       POPC     C32      CTL2    -0.220000       12.0110           0
      1383 MEMB     11       POPC     H2X      HAL2     0.900000E-01   1.00800           0
      1384 MEMB     11       POPC     H2Y      HAL2     0.900000E-01   1.00800           0
      1385 MEMB     11       POPC     C23      CTL2    -0.180000       12.0110           0
      1386 MEMB     11       POPC     H3R      HAL2     0.900000E-01   1.00800           0
      1387 MEMB     11       POPC     H3S      HAL2     0.900000E-01   1.00800           0
      1388 MEMB     11       POPC     C24      CTL2    -0.180000       12.0110           0
      1389 MEMB     11       POPC     H4R      HAL2     0.900000E-01   1.00800           0
      1390 MEMB     11       POPC     H4S      HAL2     0.900000E-01   1.00800           0
      1391 MEMB     11       POPC     C25      CTL2    -0.180000       12.0110           0
      1392 MEMB     11       POPC     H5R      HAL2     0.900000E-01   1.00800           0
      1393 MEMB     11       POPC     H5S      HAL2     0.900000E-01   1.00800           0
      1394 MEMB     11       POPC     C26      CTL2    -0.180000       12.0110           0
      1395 MEMB     11       POPC     H6R      HAL2     0.900000E-01   1.00800           0
      1396 MEMB     11       POPC     H6S      HAL2     0.900000E-01   1.00800           0
      1397 MEMB     11       POPC     C27      CTL2    -0.180000       12.0110           0
      1398 MEMB     11       POPC     H7R      HAL2     0.900000E-01   1.00800           0
      1399 MEMB     11       POPC     H7S      HAL2     0.900000E-01   1.00800           0
      1400 MEMB     11       POPC     C28      CTL2    -0.180000       12.0110           0
      1401 MEMB     11       POPC     H8R      HAL2     0.900000E-01   1.00800           0
      1402 MEMB     11       POPC     H8S      HAL2     0.900000E-01   1.00800           0
      1403 MEMB     11       POPC     C29      CEL1    -0.150000       12.0110           0
      1404 MEMB     11       POPC     H91      HEL1     0.150000       1.00800           0
      1405 MEMB     11       POPC     C210     CEL1    -0.150000       12.0110           0
      1406 MEMB     11       POPC     H101     HEL1     0.150000       1.00800           0
      1407 MEMB     11       POPC     C211     CTL2    -0.180000       12.0110           0
      1408 MEMB     11       POPC     H11R     HAL2     0.900000E-01   1.00800           0
      1409 MEMB     11       POPC     H11S     HAL2     0.900000E-01   1.00800           0
      1410 MEMB     11       POPC     C212     CTL2    -0.180000       12.0110           0
      1411 MEMB     11       POPC     H12R     HAL2     0.900000E-01   1.00800           0
      1412 MEMB     11       POPC     H12S     HAL2     0.900000E-01   1.00800           0
      1413 MEMB     11       POPC     C213     CTL2    -0.180000       12.0110           0
      1414 MEMB     11       POPC     H13R     HAL2     0.900000E-01   1.00800           0
      1415 MEMB     11       POPC     H13S     HAL2     0.900000E-01   1.00800           0
      1416 MEMB     11       POPC     C214     CTL2    -0.180000       12.0110           0
      1417 MEMB     11       POPC     H14R     HAL2     0.900000E-01   1.00800           0
      1418 MEMB     11       POPC     H14S     HAL2     0.900000E-01   1.00800           0
      1419 MEMB     11       POPC     C215     CTL2    -0.180000       12.0110           0
      1420 MEMB     11       POPC     H15R     HAL2     0.900000E-01   1.00800           0
      1421 MEMB     11       POPC     H15S     HAL2     0.900000E-01   1.00800           0
      1422 MEMB     11       POPC     C216     CTL2    -0.180000       12.0110           0
      1423 MEMB     11       POPC     H16R     HAL2     0.900000E-01   1.00800           0
      1424 MEMB     11       POPC     H16S     HAL2     0.900000E-01   1.00800           0
      1425 MEMB     11       POPC     C217     CTL2    -0.180000       12.0110           0
      1426 MEMB     11       POPC     H17R     HAL2     0.900000E-01   1.00800           0
      1427 MEMB     11       POPC     H17S     HAL2     0.900000E-01   1.00800           0
      1428 MEMB     11       POPC     C218     CTL3    -0.270000       12.0110           0
      1429 MEMB     11       POPC     H18R     HAL3     0.900000E-01   1.00800           0
      1430 MEMB     11       POPC     H18S     HAL3     0.900000E-01   1.00800           0
      1431 MEMB     11       POPC     H18T     HAL3     0.900000E-01   1.00800           0
      1432 MEMB     11       POPC     C33      CTL2    -0.180000       12.0110           0
      1433 MEMB     11       POPC     H3X      HAL2     0.900000E-01   1.00800           0
      1434 MEMB     11       POPC     H3Y      HAL2     0.900000E-01   1.00800           0
      1435 MEMB     11       POPC     C34      CTL2    -0.180000       12.0110           0
      1436 MEMB     11       POPC     H4X      HAL2     0.900000E-01   1.00800           0
      1437 MEMB     11       POPC     H4Y      HAL2     0.900000E-01   1.00800           0
      1438 MEMB     11       POPC     C35      CTL2    -0.180000       12.0110           0
      1439 MEMB     11       POPC     H5X      HAL2     0.900000E-01   1.00800           0
      1440 MEMB     11       POPC     H5Y      HAL2     0.900000E-01   1.00800           0
      1441 MEMB     11       POPC     C36      CTL2    -0.180000       12.0110           0
      1442 MEMB     11       POPC     H6X      HAL2     0.900000E-01   1.00800           0
      1443 MEMB     11       POPC     H6Y      HAL2     0.900000E-01   1.00800           0
      1444 MEMB     11       POPC     C37      CTL2    -0.180000       12.0110           0
      1445 MEMB     11       POPC     H7X      HAL2     0.900000E-01   1.00800           0
      1446 MEMB     11       POPC     H7Y      HAL2     0.900000E-01   1.00800           0
      1447 MEMB     11       POPC     C38      CTL2    -0.180000       12.0110           0
      1448 MEMB     11       POPC     H8X      HAL2     0.900000E-01   1.00800           0
      1449 MEMB     11       POPC     H8Y      HAL2     0.900000E-01   1.00800           0
      1450 MEMB     11       POPC     C39      CTL2    -0.180000       12.0110           0
      1451 MEMB     11       POPC     H9X      HAL2     0.900000E-01   1.00800           0
      1452 MEMB     11       POPC     H9Y      HAL2     0.900000E-01   1.00800           0
      1453 MEMB     11       POPC     C310     CTL2    -0.180000       12.0110           0
      1454 MEMB     11       POPC     H10X     HAL2     0.900000E-01   1.00800           0
      1455 MEMB     11       POPC     H10Y     HAL2     0.900000E-01   1.00800           0
      1456 MEMB     11       POPC     C311     CTL2    -0.180000       12.0110           0
      1457 MEMB     11       POPC     H11X     HAL2     0.900000E-01   1.00800           0
      1458 MEMB     11       POPC     H11Y     HAL2     0.900000E-01   1.00800           0
      1459 MEMB     11       POPC     C312     CTL2    -0.180000       12.0110           0
      1460 MEMB     11       POPC     H12X     HAL2     0.900000E-01   1.00800           0
      1461 MEMB     11       POPC     H12Y     HAL2     0.900000E-01   1.00800           0
      1462 MEMB     11       POPC     C313     CTL2    -0.180000       12.0110           0
      1463 MEMB     11       POPC     H13X     HAL2     0.900000E-01   1.00800           0
      1464 MEMB     11       POPC     H13Y     HAL2     0.900000E-01   1.00800           0
      1465 MEMB     11       POPC     C314     CTL2    -0.180000       12.0110           0
      1466 MEMB     11       POPC     H14X     HAL2     0.900000E-01   1.00800           0
      1467 MEMB     11       POPC     H14Y     HAL2     0.900000E-01   1.00800           0
      1468 MEMB     11       POPC     C315     CTL2    -0.180000       12.0110           0
      1469 MEMB     11       POPC     H15X     HAL2     0.900000E-01   1.00800           0
      1470 MEMB     11       POPC     H15Y     HAL2     0.900000E-01   1.00800           0
      1471 MEMB     11       POPC     C316     CTL3    -0.270000       12.0110           0
      1472 MEMB     11       POPC     H16X     HAL3     0.900000E-01   1.00800           0
      1473 MEMB     11       POPC     H16Y     HAL3     0.900000E-01   1.00800           0
      1474 MEMB     11       POPC     H16Z     HAL3     0.900000E-01   1.00800           0
      1475 MEMB     12       POPC     N        NTL     -0.600000       14.0070           0
      1476 MEMB     12       POPC     C12      CTL2    -0.100000       12.0110           0
      1477 MEMB     12       POPC     H12A     HL       0.250000       1.00800           0
      1478 MEMB     12       POPC     H12B     HL       0.250000       1.00800           0
      1479 MEMB     12       POPC     C13      CTL5    -0.350000       12.0110           0
      1480 MEMB     12       POPC     H13A     HL       0.250000       1.00800           0
      1481 MEMB     12       POPC     H13B     HL       0.250000       1.00800           0
      1482 MEMB     12       POPC     H13C     HL       0.250000       1.00800           0
      1483 MEMB     12       POPC     C14      CTL5    -0.350000       12.0110           0
      1484 MEMB     12       POPC     H14A     HL       0.250000       1.00800           0
      1485 MEMB     12       POPC     H14B     HL       0.250000       1.00800           0
      1486 MEMB     12       POPC     H14C     HL       0.250000       1.00800           0
      1487 MEMB     12       POPC     C15      CTL5    -0.350000       12.0110           0
      1488 MEMB     12       POPC     H15A     HL       0.250000       1.00800           0
      1489 MEMB     12       POPC     H15B     HL       0.250000       1.00800           0
      1490 MEMB     12       POPC     H15C     HL       0.250000       1.00800           0
      1491 MEMB     12       POPC     C11      CTL2    -0.800000E-01   12.0110           0
      1492 MEMB     12       POPC     H11A     HAL2     0.900000E-01   1.00800           0
      1493 MEMB     12       POPC     H11B     HAL2     0.900000E-01   1.00800           0
      1494 MEMB     12       POPC     P        PL        1.50000       30.9740           0
      1495 MEMB     12       POPC     O13      O2L     -0.780000       15.9994           0
      1496 MEMB     12       POPC     O14      O2L     -0.780000       15.9994           0
      1497 MEMB     12       POPC     O12      OSLP    -0.570000       15.9994           0
      1498 MEMB     12       POPC     O11      OSLP    -0.570000       15.9994           0
      1499 MEMB     12       POPC     C1       CTL2    -0.800000E-01   12.0110           0
      1500 MEMB     12       POPC     HA       HAL2     0.900000E-01   1.00800           0
      1501 MEMB     12       POPC     HB       HAL2     0.900000E-01   1.00800           0
      1502 MEMB     12       POPC     C2       CTL1     0.170000       12.0110           0
      1503 MEMB     12       POPC     HS       HAL1     0.900000E-01   1.00800           0
      1504 MEMB     12       POPC     O21      OSL     -0.490000       15.9994           0
      1505 MEMB     12       POPC     C21      CL       0.900000       12.0110           0
      1506 MEMB     12       POPC     O22      OBL     -0.630000       15.9994           0
      1507 MEMB     12       POPC     C22      CTL2    -0.220000       12.0110           0
      1508 MEMB     12       POPC     H2R      HAL2     0.900000E-01   1.00800           0
      1509 MEMB     12       POPC     H2S      HAL2     0.900000E-01   1.00800           0
      1510 MEMB     12       POPC     C3       CTL2     0.800000E-01   12.0110           0
      1511 MEMB     12       POPC     HX       HAL2     0.900000E-01   1.00800           0
      1512 MEMB     12       POPC     HY       HAL2     0.900000E-01   1.00800           0
      1513 MEMB     12       POPC     O31      OSL     -0.490000       15.9994           0
      1514 MEMB     12       POPC     C31      CL       0.900000       12.0110           0
      1515 MEMB     12       POPC     O32      OBL     -0.630000       15.9994           0
      1516 MEMB     12       POPC     C32      CTL2    -0.220000       12.0110           0
      1517 MEMB     12       POPC     H2X      HAL2     0.900000E-01   1.00800           0
      1518 MEMB     12       POPC     H2Y      HAL2     0.900000E-01   1.00800           0
      1519 MEMB     12       POPC     C23      CTL2    -0.180000       12.0110           0
      1520 MEMB     12       POPC     H3R      HAL2     0.900000E-01   1.00800           0
      1521 MEMB     12       POPC     H3S      HAL2     0.900000E-01   1.00800           0
      1522 MEMB     12       POPC     C24      CTL2    -0.180000       12.0110           0
      1523 MEMB     12       POPC     H4R      HAL2     0.900000E-01   1.00800           0
      1524 MEMB     12       POPC     H4S      HAL2     0.900000E-01   1.00800           0
      1525 MEMB     12       POPC     C25      CTL2    -0.180000       12.0110           0
      1526 MEMB     12       POPC     H5R      HAL2     0.900000E-01   1.00800           0
      1527 MEMB     12       POPC     H5S      HAL2     0.900000E-01   1.00800           0
      1528 MEMB     12       POPC     C26      CTL2    -0.180000       12.0110           0
      1529 MEMB     12       POPC     H6R      HAL2     0.900000E-01   1.00800           0
      1530 MEMB     12       POPC     H6S      HAL2     0.900000E-01   1.00800           0
      1531 MEMB     12       POPC     C27      CTL2    -0.180000       12.0110           0
      1532 MEMB     12       POPC     H7R      HAL2     0.900000E-01   1.00800           0
      1533 MEMB     12       POPC     H7S      HAL2     0.900000E-01   1.00800           0
      1534 MEMB     12       POPC     C28      CTL2    -0.180000       12.0110           0
      1535 MEMB     12       POPC     H8R      HAL2     0.900000E-01   1.00800           0
      1536 MEMB     12       POPC     H8S      HAL2     0.900000E-01   1.00800           0
      1537 MEMB     12       POPC     C29      CEL1    -0.150000       12.0110           0
      1538 MEMB     12       POPC     H91      HEL1     0.150000       1.00800           0
      1539 MEMB     12       POPC     C210     CEL1    -0.150000       12.0110           0
      1540 MEMB     12       POPC     H101     HEL1     0.150000       1.00800           0
      1541 MEMB     12       POPC     C211     CTL2    -0.180000       12.0110           0
      1542 MEMB     12       POPC     H11R     HAL2     0.900000E-01   1.00800           0
      1543 MEMB     12       POPC     H11S     HAL2     0.900000E-01   1.00800           0
      1544 MEMB     12       POPC     C212     CTL2    -0.180000       12.0110           0
      1545 MEMB     12       POPC     H12R     HAL2     0.900000E-01   1.00800           0
      1546 MEMB     12       POPC     H12S     HAL2     0.900000E-01   1.00800           0
      1547 MEMB     12       POPC     C213     CTL2    -0.180000       12.0110           0
      1548 MEMB     12       POPC     H13R     HAL2     0.900000E-01   1.00800           0
      1549 MEMB     12       POPC     H13S     HAL2     0.900000E-01   1.00800           0
      1550 MEMB     12       POPC     C214     CTL2    -0.180000       12.0110           0
      1551 MEMB     12       POPC     H14R     HAL2     0.900000E-01   1.00800           0
      1552 MEMB     12       POPC     H14S     HAL2     0.900000E-01   1.00800           0
      1553 MEMB     12       POPC     C215     CTL2    -0.180000       12.0110           0
      1554 MEMB     12       POPC     H15R     HAL2     0.900000E-01   1.00800           0
      1555 MEMB     12       POPC     H15S     HAL2     0.900000E-01   1.00800           0
      1556 MEMB     12       POPC     C216     CTL2    -0.180000       12.0110           0
      1557 MEMB     12       POPC     H16R     HAL2     0.900000E-01   1.00800           0
      1558 MEMB     12       POPC     H16S     HAL2     0.900000E-01   1.00800           0
      1559 MEMB     12       POPC     C217     CTL2    -0.180000       12.0110           0
      1560 MEMB     12       POPC     H17R     HAL2     0.900000E-01   1.00800           0
      1561 MEMB     12       POPC     H17S     HAL2     0.900000E-01   1.00800           0
      1562 MEMB     12       POPC     C218     CTL3    -0.270000       12.0110           0
      1563 MEMB     12       POPC     H18R     HAL3     0.900000E-01   1.00800           0
      1564 MEMB     12       POPC     H18S     HAL3     0.900000E-01   1.00800           0
      1565 MEMB     12       POPC     H18T     HAL3     0.900000E-01   1.00800           0
      1566 MEMB     12       POPC     C33      CTL2    -0.180000       12.0110           0
      1567 MEMB     12       POPC     H3X      HAL2     0.900000E-01   1.00800           0
      1568 MEMB     12       POPC     H3Y      HAL2     0.900000E-01   1.00800           0
      1569 MEMB     12       POPC     C34      CTL2    -0.180000       12.0110           0
      1570 MEMB     12       POPC     H4X      HAL2     0.900000E-01   1.00800           0
      1571 MEMB     12       POPC     H4Y      HAL2     0.900000E-01   1.00800           0
      1572 MEMB     12       POPC     C35      CTL2    -0.180000       12.0110           0
      1573 MEMB     12       POPC     H5X      HAL2     0.900000E-01   1.00800           0
      1574 MEMB     12       POPC     H5Y      HAL2     0.900000E-01   1.00800           0
      1575 MEMB     12       POPC     C36      CTL2    -0.180000       12.0110           0
      1576 MEMB     12       POPC     H6X      HAL2     0.900000E-01   1.00800           0
      1577 MEMB     12       POPC     H6Y      HAL2     0.900000E-01   1.00800           0
      1578 MEMB     12       POPC     C37      CTL2    -0.180000       12.0110           0
      1579 MEMB     12       POPC     H7X      HAL2     0.900000E-01   1.00800           0
      1580 MEMB     12       POPC     H7Y      HAL2     0.900000E-01   1.00800           0
      1581 MEMB     12       POPC     C38      CTL2    -0.180000       12.0110           0
      1582 MEMB     12       POPC     H8X      HAL2     0.900000E-01   1.00800           0
      1583 MEMB     12       POPC     H8Y      HAL2     0.900000E-01   1.00800           0
      1584 MEMB     12       POPC     C39      CTL2    -0.180000       12.0110           0
      1585 MEMB     12       POPC     H9X      HAL2     0.900000E-01   1.00800           0
      1586 MEMB     12       POPC     H9Y      HAL2     0.900000E-01   1.00800           0
      1587 MEMB     12       POPC     C310     CTL2    -0.180000       12.0110           0
      1588 MEMB     12       POPC     H10X     HAL2     0.900000E-01   1.00800           0
      1589 MEMB     12       POPC     H10Y     HAL2     0.900000E-01   1.00800           0
      1590 MEMB     12       POPC     C311     CTL2    -0.180000       12.0110           0
      1591 MEMB     12       POPC     H11X     HAL2     0.900000E-01   1.00800           0
      1592 MEMB     12       POPC     H11Y     HAL2     0.900000E-01   1.00800           0
      1593 MEMB     12       POPC     C312     CTL2    -0.180000       12.0110           0
      1594 MEMB     12       POPC     H12X     HAL2     0.900000E-01   1.00800           0
      1595 MEMB     12       POPC     H12Y     HAL2     0.900000E-01   1.00800           0
      1596 MEMB     12       POPC     C313     CTL2    -0.180000       12.0110           0
      1597 MEMB     12       POPC     H13X     HAL2     0.900000E-01   1.00800           0
      1598 MEMB     12       POPC     H13Y     HAL2     0.900000E-01   1.00800           0
      1599 MEMB     12       POPC     C314     CTL2    -0.180000       12.0110           0
      1600 MEMB     12       POPC     H14X     HAL2     0.900000E-01   1.00800           0
      1601 MEMB     12       POPC     H14Y     HAL2     0.900000E-01   1.00800           0
      1602 MEMB     12       POPC     C315     CTL2    -0.180000       12.0110           0
      1603 MEMB     12       POPC     H15X     HAL2     0.900000E-01   1.00800           0
      1604 MEMB     12       POPC     H15Y     HAL2     0.900000E-01   1.00800           0
      1605 MEMB     12       POPC     C316     CTL3    -0.270000       12.0110           0
      1606 MEMB     12       POPC     H16X     HAL3     0.900000E-01   1.00800           0
      1607 MEMB     12       POPC     H16Y     HAL3     0.900000E-01   1.00800           0
      1608 MEMB     12       POPC     H16Z     HAL3     0.900000E-01   1.00800           0
      1609 MEMB     13       POPC     N        NTL     -0.600000       14.0070           0
      1610 MEMB     13       POPC     C12      CTL2    -0.100000       12.0110           0
      1611 MEMB     13       POPC     H12A     HL       0.250000       1.00800           0
      1612 MEMB     13       POPC     H12B     HL       0.250000       1.00800           0
      1613 MEMB     13       POPC     C13      CTL5    -0.350000       12.0110           0
      1614 MEMB     13       POPC     H13A     HL       0.250000       1.00800           0
      1615 MEMB     13       POPC     H13B     HL       0.250000       1.00800           0
      1616 MEMB     13       POPC     H13C     HL       0.250000       1.00800           0
      1617 MEMB     13       POPC     C14      CTL5    -0.350000       12.0110           0
      1618 MEMB     13       POPC     H14A     HL       0.250000       1.00800           0
      1619 MEMB     13       POPC     H14B     HL       0.250000       1.00800           0
      1620 MEMB     13       POPC     H14C     HL       0.250000       1.00800           0
      1621 MEMB     13       POPC     C15      CTL5    -0.350000       12.0110           0
      1622 MEMB     13       POPC     H15A     HL       0.250000       1.00800           0
      1623 MEMB     13       POPC     H15B     HL       0.250000       1.00800           0
      1624 MEMB     13       POPC     H15C     HL       0.250000       1.00800           0
      1625 MEMB     13       POPC     C11      CTL2    -0.800000E-01   12.0110           0
      1626 MEMB     13       POPC     H11A     HAL2     0.900000E-01   1.00800           0
      1627 MEMB     13       POPC     H11B     HAL2     0.900000E-01   1.00800           0
      1628 MEMB     13       POPC     P        PL        1.50000       30.9740           0
      1629 MEMB     13       POPC     O13      O2L     -0.780000       15.9994           0
      1630 MEMB     13       POPC     O14      O2L     -0.780000       15.9994           0
      1631 MEMB     13       POPC     O12      OSLP    -0.570000       15.9994           0
      1632 MEMB     13       POPC     O11      OSLP    -0.570000       15.9994           0
      1633 MEMB     13       POPC     C1       CTL2    -0.800000E-01   12.0110           0
      1634 MEMB     13       POPC     HA       HAL2     0.900000E-01   1.00800           0
      1635 MEMB     13       POPC     HB       HAL2     0.900000E-01   1.00800           0
      1636 MEMB     13       POPC     C2       CTL1     0.170000       12.0110           0
      1637 MEMB     13       POPC     HS       HAL1     0.900000E-01   1.00800           0
      1638 MEMB     13       POPC     O21      OSL     -0.490000       15.9994           0
      1639 MEMB     13       POPC     C21      CL       0.900000       12.0110           0
      1640 MEMB     13       POPC     O22      OBL     -0.630000       15.9994           0
      1641 MEMB     13       POPC     C22      CTL2    -0.220000       12.0110           0
      1642 MEMB     13       POPC     H2R      HAL2     0.900000E-01   1.00800           0
      1643 MEMB     13       POPC     H2S      HAL2     0.900000E-01   1.00800           0
      1644 MEMB     13       POPC     C3       CTL2     0.800000E-01   12.0110           0
      1645 MEMB     13       POPC     HX       HAL2     0.900000E-01   1.00800           0
      1646 MEMB     13       POPC     HY       HAL2     0.900000E-01   1.00800           0
      1647 MEMB     13       POPC     O31      OSL     -0.490000       15.9994           0
      1648 MEMB     13       POPC     C31      CL       0.900000       12.0110           0
      1649 MEMB     13       POPC     O32      OBL     -0.630000       15.9994           0
      1650 MEMB     13       POPC     C32      CTL2    -0.220000       12.0110           0
      1651 MEMB     13       POPC     H2X      HAL2     0.900000E-01   1.00800           0
      1652 MEMB     13       POPC     H2Y      HAL2     0.900000E-01   1.00800           0
      1653 MEMB     13       POPC     C23      CTL2    -0.180000       12.0110           0
      1654 MEMB     13       POPC     H3R      HAL2     0.900000E-01   1.00800           0
      1655 MEMB     13       POPC     H3S      HAL2     0.900000E-01   1.00800           0
      1656 MEMB     13       POPC     C24      CTL2    -0.180000       12.0110           0
      1657 MEMB     13       POPC     H4R      HAL2     0.900000E-01   1.00800           0
      1658 MEMB     13       POPC     H4S      HAL2     0.900000E-01   1.00800           0
      1659 MEMB     13       POPC     C25      CTL2    -0.180000       12.0110           0
      1660 MEMB     13       POPC     H5R      HAL2     0.900000E-01   1.00800           0
      1661 MEMB     13       POPC     H5S      HAL2     0.900000E-01   1.00800           0
      1662 MEMB     13       POPC     C26      CTL2    -0.180000       12.0110           0
      1663 MEMB     13       POPC     H6R      HAL2     0.900000E-01   1.00800           0
      1664 MEMB     13       POPC     H6S      HAL2     0.900000E-01   1.00800           0
      1665 MEMB     13       POPC     C27      CTL2    -0.180000       12.0110           0
      1666 MEMB     13       POPC     H7R      HAL2     0.900000E-01   1.00800           0
      1667 MEMB     13       POPC     H7S      HAL2     0.900000E-01   1.00800           0
      1668 MEMB     13       POPC     C28      CTL2    -0.180000       12.0110           0
      1669 MEMB     13       POPC     H8R      HAL2     0.900000E-01   1.00800           0
      1670 MEMB     13       POPC     H8S      HAL2     0.900000E-01   1.00800           0
      1671 MEMB     13       POPC     C29      CEL1    -0.150000       12.0110           0
      1672 MEMB     13       POPC     H91      HEL1     0.150000       1.00800           0
      1673 MEMB     13       POPC     C210     CEL1    -0.150000       12.0110           0
      1674 MEMB     13       POPC     H101     HEL1     0.150000       1.00800           0
      1675 MEMB     13       POPC     C211     CTL2    -0.180000       12.0110           0
      1676 MEMB     13       POPC     H11R     HAL2     0.900000E-01   1.00800           0
      1677 MEMB     13       POPC     H11S     HAL2     0.900000E-01   1.00800           0
      1678 MEMB     13       POPC     C212     CTL2    -0.180000       12.0110           0
      1679 MEMB     13       POPC     H12R     HAL2     0.900000E-01   1.00800           0
      1680 MEMB     13       POPC     H12S     HAL2     0.900000E-01   1.00800           0
      1681 MEMB     13       POPC     C213     CTL2    -0.180000       12.0110           0
      1682 MEMB     13       POPC     H13R     HAL2     0.900000E-01   1.00800           0
      1683 MEMB     13       POPC     H13S     HAL2     0.900000E-01   1.00800           0
      1684 MEMB     13       POPC     C214     CTL2    -0.180000       12.0110           0
      1685 MEMB     13       POPC     H14R     HAL2     0.900000E-01   1.00800           0
      1686 MEMB     13       POPC     H14S     HAL2     0.900000E-01   1.00800           0
      1687 MEMB     13       POPC     C215     CTL2    -0.180000       12.0110           0
      1688 MEMB     13       POPC     H15R     HAL2     0.900000E-01   1.00800           0
      1689 MEMB     13       POPC     H15S     HAL2     0.900000E-01   1.00800           0
      1690 MEMB     13       POPC     C216     CTL2    -0.180000       12.0110           0
      1691 MEMB     13       POPC     H16R     HAL2     0.900000E-01   1.00800           0
      1692 MEMB     13       POPC     H16S     HAL2     0.900000E-01   1.00800           0
      1693 MEMB     13       POPC     C217     CTL2    -0.180000       12.0110           0
      1694 MEMB     13       POPC     H17R     HAL2     0.900000E-01   1.00800           0
      1695 MEMB     13       POPC     H17S     HAL2     0.900000E-01   1.00800           0
      1696 MEMB     13       POPC     C218     CTL3    -0.270000       12.0110           0
      1697 MEMB     13       POPC     H18R     HAL3     0.900000E-01   1.00800           0
      1698 MEMB     13       POPC     H18S     HAL3     0.900000E-01   1.00800           0
      1699 MEMB     13       POPC     H18T     HAL3     0.900000E-01   1.00800           0
      1700 MEMB     13       POPC     C33      CTL2    -0.180000       12.0110           0
      1701 MEMB     13       POPC     H3X      HAL2     0.900000E-01   1.00800           0
      1702 MEMB     13       POPC     H3Y      HAL2     0.900000E-01   1.00800           0
      1703 MEMB     13       POPC     C34      CTL2    -0.180000       12.0110           0
      1704 MEMB     13       POPC     H4X      HAL2     0.900000E-01   1.00800           0
      1705 MEMB     13       POPC     H4Y      HAL2     0.900000E-01   1.00800           0
      1706 MEMB     13       POPC     C35      CTL2    -0.180000       12.0110           0
      1707 MEMB     13       POPC     H5X      HAL2     0.900000E-01   1.00800           0
      1708 MEMB     13       POPC     H5Y      HAL2     0.900000E-01   1.00800           0
      1709 MEMB     13       POPC     C36      CTL2    -0.180000       12.0110           0
      1710 MEMB     13       POPC     H6X      HAL2     0.900000E-01   1.00800           0
      1711 MEMB     13       POPC     H6Y      HAL2     0.900000E-01   1.00800           0
      1712 MEMB     13       POPC     C37      CTL2    -0.180000       12.0110           0
      1713 MEMB     13       POPC     H7X      HAL2     0.900000E-01   1.00800           0
      1714 MEMB     13       POPC     H7Y      HAL2     0.900000E-01   1.00800           0
      1715 MEMB     13       POPC     C38      CTL2    -0.180000       12.0110           0
      1716 MEMB     13       POPC     H8X      HAL2     0.900000E-01   1.00800           0
      1717 MEMB     13       POPC     H8Y      HAL2     0.900000E-01   1.00800           0
      1718 MEMB     13       POPC     C39      CTL2    -0.180000       12.0110           0
      1719 MEMB     13       POPC     H9X      HAL2     0.900000E-01   1.00800           0
      1720 MEMB     13       POPC     H9Y      HAL2     0.900000E-01   1.00800           0
      1721 MEMB     13       POPC     C310     CTL2    -0.180000       12.0110           0
      1722 MEMB     13       POPC     H10X     HAL2     0.900000E-01   1.00800           0
      1723 MEMB     13       POPC     H10Y     HAL2     0.900000E-01   1.00800           0
      1724 MEMB     13       POPC     C311     CTL2    -0.180000       12.0110           0
      1725 MEMB     13       POPC     H11X     HAL2     0.900000E-01   1.00800           0
      1726 MEMB     13       POPC     H11Y     HAL2     0.900000E-01   1.00800           0
      1727 MEMB     13       POPC     C312     CTL2    -0.180000       12.0110           0
      1728 MEMB     13       POPC     H12X     HAL2     0.900000E-01   1.00800           0
      1729 MEMB     13       POPC     H12Y     HAL2     0.900000E-01   1.00800           0
      1730 MEMB     13       POPC     C313     CTL2    -0.180000       12.0110           0
      1731 MEMB     13       POPC     H13X     HAL2     0.900000E-01   1.00800           0
      1732 MEMB     13       POPC     H13Y     HAL2     0.900000E-01   1.00800           0
      1733 MEMB     13       POPC     C314     CTL2    -0.180000       12.0110           0
      1734 MEMB     13       POPC     H14X     HAL2     0.900000E-01   1.00800           0
      1735 MEMB     13       POPC     H14Y     HAL2     0.900000E-01   1.00800           0
      1736 MEMB     13       POPC     C315     CTL2    -0.180000       12.0110           0
      1737 MEMB     13       POPC     H15X     HAL2     0.900000E-01   1.00800           0
      1738 MEMB     13       POPC     H15Y     HAL2     0.900000E-01   1.00800           0
      1739 MEMB     13       POPC     C316     CTL3    -0.270000       12.0110           0
      1740 MEMB     13       POPC     H16X     HAL3     0.900000E-01   1.00800           0
      1741 MEMB     13       POPC     H16Y     HAL3     0.900000E-01   1.00800           0
      1742 MEMB     13       POPC     H16Z     HAL3     0.900000E-01   1.00800           0
      1743 MEMB     14       POPC     N        NTL     -0.600000       14.0070           0
      1744 MEMB     14       POPC     C12      CTL2    -0.100000       12.0110           0
      1745 MEMB     14       POPC     H12A     HL       0.250000       1.00800           0
      1746 MEMB     14       POPC     H12B     HL       0.250000       1.00800           0
      1747 MEMB     14       POPC     C13      CTL5    -0.350000       12.0110           0
      1748 MEMB     14       POPC     H13A     HL       0.250000       1.00800           0
      1749 MEMB     14       POPC     H13B     HL       0.250000       1.00800           0
      1750 MEMB     14       POPC     H13C     HL       0.250000       1.00800           0
      1751 MEMB     14       POPC     C14      CTL5    -0.350000       12.0110           0
      1752 MEMB     14       POPC     H14A     HL       0.250000       1.00800           0
      1753 MEMB     14       POPC     H14B     HL       0.250000       1.00800           0
      1754 MEMB     14       POPC     H14C     HL       0.250000       1.00800           0
      1755 MEMB     14       POPC     C15      CTL5    -0.350000       12.0110           0
      1756 MEMB     14       POPC     H15A     HL       0.250000       1.00800           0
      1757 MEMB     14       POPC     H15B     HL       0.250000       1.00800           0
      1758 MEMB     14       POPC     H15C     HL       0.250000       1.00800           0
      1759 MEMB     14       POPC     C11      CTL2    -0.800000E-01   12.0110           0
      1760 MEMB     14       POPC     H11A     HAL2     0.900000E-01   1.00800           0
      1761 MEMB     14       POPC     H11B     HAL2     0.900000E-01   1.00800           0
      1762 MEMB     14       POPC     P        PL        1.50000       30.9740           0
      1763 MEMB     14       POPC     O13      O2L     -0.780000       15.9994           0
      1764 MEMB     14       POPC     O14      O2L     -0.780000       15.9994           0
      1765 MEMB     14       POPC     O12      OSLP    -0.570000       15.9994           0
      1766 MEMB     14       POPC     O11      OSLP    -0.570000       15.9994           0
      1767 MEMB     14       POPC     C1       CTL2    -0.800000E-01   12.0110           0
      1768 MEMB     14       POPC     HA       HAL2     0.900000E-01   1.00800           0
      1769 MEMB     14       POPC     HB       HAL2     0.900000E-01   1.00800           0
      1770 MEMB     14       POPC     C2       CTL1     0.170000       12.0110           0
      1771 MEMB     14       POPC     HS       HAL1     0.900000E-01   1.00800           0
      1772 MEMB     14       POPC     O21      OSL     -0.490000       15.9994           0
      1773 MEMB     14       POPC     C21      CL       0.900000       12.0110           0
      1774 MEMB     14       POPC     O22      OBL     -0.630000       15.9994           0
      1775 MEMB     14       POPC     C22      CTL2    -0.220000       12.0110           0
      1776 MEMB     14       POPC     H2R      HAL2     0.900000E-01   1.00800           0
      1777 MEMB     14       POPC     H2S      HAL2     0.900000E-01   1.00800           0
      1778 MEMB     14       POPC     C3       CTL2     0.800000E-01   12.0110           0
      1779 MEMB     14       POPC     HX       HAL2     0.900000E-01   1.00800           0
      1780 MEMB     14       POPC     HY       HAL2     0.900000E-01   1.00800           0
      1781 MEMB     14       POPC     O31      OSL     -0.490000       15.9994           0
      1782 MEMB     14       POPC     C31      CL       0.900000       12.0110           0
      1783 MEMB     14       POPC     O32      OBL     -0.630000       15.9994           0
      1784 MEMB     14       POPC     C32      CTL2    -0.220000       12.0110           0
      1785 MEMB     14       POPC     H2X      HAL2     0.900000E-01   1.00800           0
      1786 MEMB     14       POPC     H2Y      HAL2     0.900000E-01   1.00800           0
      1787 MEMB     14       POPC     C23      CTL2    -0.180000       12.0110           0
      1788 MEMB     14       POPC     H3R      HAL2     0.900000E-01   1.00800           0
      1789 MEMB     14       POPC     H3S      HAL2     0.900000E-01   1.00800           0
      1790 MEMB     14       POPC     C24      CTL2    -0.180000       12.0110           0
      1791 MEMB     14       POPC     H4R      HAL2     0.900000E-01   1.00800           0
      1792 MEMB     14       POPC     H4S      HAL2     0.900000E-01   1.00800           0
      1793 MEMB     14       POPC     C25      CTL2    -0.180000       12.0110           0
      1794 MEMB     14       POPC     H5R      HAL2     0.900000E-01   1.00800           0
      1795 MEMB     14       POPC     H5S      HAL2     0.900000E-01   1.00800           0
      1796 MEMB     14       POPC     C26      CTL2    -0.180000       12.0110           0
      1797 MEMB     14       POPC     H6R      HAL2     0.900000E-01   1.00800           0
      1798 MEMB     14       POPC     H6S      HAL2     0.900000E-01   1.00800           0
      1799 MEMB     14       POPC     C27      CTL2    -0.180000       12.0110           0
      1800 MEMB     14       POPC     H7R      HAL2     0.900000E-01   1.00800           0
      1801 MEMB     14       POPC     H7S      HAL2     0.900000E-01   1.00800           0
      1802 MEMB     14       POPC     C28      CTL2    -0.180000       12.0110           0
      1803 MEMB     14       POPC     H8R      HAL2     0.900000E-01   1.00800           0
      1804 MEMB     14       POPC     H8S      HAL2     0.900000E-01   1.00800           0
      1805 MEMB     14       POPC     C29      CEL1    -0.150000       12.0110           0
      1806 MEMB     14       POPC     H91      HEL1     0.150000       1.00800           0
      1807 MEMB     14       POPC     C210     CEL1    -0.150000       12.0110           0
      1808 MEMB     14       POPC     H101     HEL1     0.150000       1.00800           0
      1809 MEMB     14       POPC     C211     CTL2    -0.180000       12.0110           0
      1810 MEMB     14       POPC     H11R     HAL2     0.900000E-01   1.00800           0
      1811 MEMB     14       POPC     H11S     HAL2     0.900000E-01   1.00800           0
      1812 MEMB     14       POPC     C212     CTL2    -0.180000       12.0110           0
      1813 MEMB     14       POPC     H12R     HAL2     0.900000E-01   1.00800           0
      1814 MEMB     14       POPC     H12S     HAL2     0.900000E-01   1.00800           0
      1815 MEMB     14       POPC     C213     CTL2    -0.180000       12.0110           0
      1816 MEMB     14       POPC     H13R     HAL2     0.900000E-01   1.00800           0
      1817 MEMB     14       POPC     H13S     HAL2     0.900000E-01   1.00800           0
      1818 MEMB     14       POPC     C214     CTL2    -0.180000       12.0110           0
      1819 MEMB     14       POPC     H14R     HAL2     0.900000E-01   1.00800           0
      1820 MEMB     14       POPC     H14S     HAL2     0.900000E-01   1.00800           0
      1821 MEMB     14       POPC     C215     CTL2    -0.180000       12.0110           0
      1822 MEMB     14       POPC     H15R     HAL2     0.900000E-01   1.00800           0
      1823 MEMB     14       POPC     H15S     HAL2     0.900000E-01   1.00800           0
      1824 MEMB     14       POPC     C216     CTL2    -0.180000       12.0110           0
      1825 MEMB     14       POPC     H16R     HAL2     0.900000E-01   1.00800           0
      1826 MEMB     14       POPC     H16S     HAL2     0.900000E-01   1.00800           0
      1827 MEMB     14       POPC     C217     CTL2    -0.180000       12.0110           0
      1828 MEMB     14       POPC     H17R     HAL2     0.900000E-01   1.00800           0
      1829 MEMB     14       POPC     H17S     HAL2     0.900000E-01   1.00800           0
      1830 MEMB     14       POPC     C218     CTL3    -0.270000       12.0110           0
      1831 MEMB     14       POPC     H18R     HAL3     0.900000E-01   1.00800           0
      1832 MEMB     14       POPC     H18S     HAL3     0.900000E-01   1.00800           0
      1833 MEMB     14       POPC     H18T     HAL3     0.900000E-01   1.00800           0
      1834 MEMB     14       POPC     C33      CTL2    -0.180000       12.0110           0
      1835 MEMB     14       POPC     H3X      HAL2     0.900000E-01   1.00800           0
      1836 MEMB     14       POPC     H3Y      HAL2     0.900000E-01   1.00800           0
      1837 MEMB     14       POPC     C34      CTL2    -0.180000       12.0110           0
      1838 MEMB     14       POPC     H4X      HAL2     0.900000E-01   1.00800           0
      1839 MEMB     14       POPC     H4Y      HAL2     0.900000E-01   1.00800           0
      1840 MEMB     14       POPC     C35      CTL2    -0.180000       12.0110           0
      1841 MEMB     14       POPC     H5X      HAL2     0.900000E-01   1.00800           0
      1842 MEMB     14       POPC     H5Y      HAL2     0.900000E-01   1.00800           0
      1843 MEMB     14       POPC     C36      CTL2    -0.180000       12.0110           0
      1844 MEMB     14       POPC     H6X      HAL2     0.900000E-01   1.00800           0
      1845 MEMB     14       POPC     H6Y      HAL2     0.900000E-01   1.00800           0
      1846 MEMB     14       POPC     C37      CTL2    -0.180000       12.0110           0
      1847 MEMB     14       POPC     H7X      HAL2     0.900000E-01   1.00800           0
      1848 MEMB     14       POPC     H7Y      HAL2     0.900000E-01   1.00800           0
      1849 MEMB     14       POPC     C38      CTL2    -0.180000       12.0110           0
      1850 MEMB     14       POPC     H8X      HAL2     0.900000E-01   1.00800           0
      1851 MEMB     14       POPC     H8Y      HAL2     0.900000E-01   1.00800           0
      1852 MEMB     14       POPC     C39      CTL2    -0.180000       12.0110           0
      1853 MEMB     14       POPC     H9X      HAL2     0.900000E-01   1.00800           0
      1854 MEMB     14       POPC     H9Y      HAL2     0.900000E-01   1.00800           0
      1855 MEMB     14       POPC     C310     CTL2    -0.180000       12.0110           0
      1856 MEMB     14       POPC     H10X     HAL2     0.900000E-01   1.00800           0
      1857 MEMB     14       POPC     H10Y     HAL2     0.900000E-01   1.00800           0
      1858 MEMB     14       POPC     C311     CTL2    -0.180000       12.0110           0
      1859 MEMB     14       POPC     H11X     HAL2     0.900000E-01   1.00800           0
      1860 MEMB     14       POPC     H11Y     HAL2     0.900000E-01   1.00800           0
      1861 MEMB     14       POPC     C312     CTL2    -0.180000       12.0110           0
      1862 MEMB     14       POPC     H12X     HAL2     0.900000E-01   1.00800           0
      1863 MEMB     14       POPC     H12Y     HAL2     0.900000E-01   1.00800           0
      1864 MEMB     14       POPC     C313     CTL2    -0.180000       12.0110           0
      1865 MEMB     14       POPC     H13X     HAL2     0.900000E-01   1.00800           0
      1866 MEMB     14       POPC     H13Y     HAL2     0.900000E-01   1.00800           0
      1867 MEMB     14       POPC     C314     CTL2    -0.180000       12.0110           0
      1868 MEMB     14       POPC     H14X     HAL2     0.900000E-01   1.00800           0
      1869 MEMB     14       POPC     H14Y     HAL2     0.900000E-01   1.00800           0
      1870 MEMB     14       POPC     C315     CTL2    -0.180000       12.0110           0
      1871 MEMB     14       POPC     H15X     HAL2     0.900000E-01   1.00800           0
      1872 MEMB     14       POPC     H15Y     HAL2     0.900000E-01   1.00800           0
      1873 MEMB     14       POPC     C316     CTL3    -0.270000       12.0110           0
      1874 MEMB     14       POPC     H16X     HAL3     0.900000E-01   1.00800           0
      1875 MEMB     14       POPC     H16Y     HAL3     0.900000E-01   1.00800           0
      1876 MEMB     14       POPC     H16Z     HAL3     0.900000E-01   1.00800           0
      1877 MEMB     15       POPC     N        NTL     -0.600000       14.0070           0
      1878 MEMB     15       POPC     C12      CTL2    -0.100000       12.0110           0
      1879 MEMB     15       POPC     H12A     HL       0.250000       1.00800           0
      1880 MEMB     15       POPC     H12B     HL       0.250000       1.00800           0
      1881 MEMB     15       POPC     C13      CTL5    -0.350000       12.0110           0
      1882 MEMB     15       POPC     H13A     HL       0.250000       1.00800           0
      1883 MEMB     15       POPC     H13B     HL       0.250000       1.00800           0
      1884 MEMB     15       POPC     H13C     HL       0.250000       1.00800           0
      1885 MEMB     15       POPC     C14      CTL5    -0.350000       12.0110           0
      1886 MEMB     15       POPC     H14A     HL       0.250000       1.00800           0
      1887 MEMB     15       POPC     H14B     HL       0.250000       1.00800           0
      1888 MEMB     15       POPC     H14C     HL       0.250000       1.00800           0
      1889 MEMB     15       POPC     C15      CTL5    -0.350000       12.0110           0
      1890 MEMB     15       POPC     H15A     HL       0.250000       1.00800           0
      1891 MEMB     15       POPC     H15B     HL       0.250000       1.00800           0
      1892 MEMB     15       POPC     H15C     HL       0.250000       1.00800           0
      1893 MEMB     15       POPC     C11      CTL2    -0.800000E-01   12.0110           0
      1894 MEMB     15       POPC     H11A     HAL2     0.900000E-01   1.00800           0
      1895 MEMB     15       POPC     H11B     HAL2     0.900000E-01   1.00800           0
      1896 MEMB     15       POPC     P        PL        1.50000       30.9740           0
      1897 MEMB     15       POPC     O13      O2L     -0.780000       15.9994           0
      1898 MEMB     15       POPC     O14      O2L     -0.780000       15.9994           0
      1899 MEMB     15       POPC     O12      OSLP    -0.570000       15.9994           0
      1900 MEMB     15       POPC     O11      OSLP    -0.570000       15.9994           0
      1901 MEMB     15       POPC     C1       CTL2    -0.800000E-01   12.0110           0
      1902 MEMB     15       POPC     HA       HAL2     0.900000E-01   1.00800           0
      1903 MEMB     15       POPC     HB       HAL2     0.900000E-01   1.00800           0
      1904 MEMB     15       POPC     C2       CTL1     0.170000       12.0110           0
      1905 MEMB     15       POPC     HS       HAL1     0.900000E-01   1.00800           0
      1906 MEMB     15       POPC     O21      OSL     -0.490000       15.9994           0
      1907 MEMB     15       POPC     C21      CL       0.900000       12.0110           0
      1908 MEMB     15       POPC     O22      OBL     -0.630000       15.9994           0
      1909 MEMB     15       POPC     C22      CTL2    -0.220000       12.0110           0
      1910 MEMB     15       POPC     H2R      HAL2     0.900000E-01   1.00800           0
      1911 MEMB     15       POPC     H2S      HAL2     0.900000E-01   1.00800           0
      1912 MEMB     15       POPC     C3       CTL2     0.800000E-01   12.0110           0
      1913 MEMB     15       POPC     HX       HAL2     0.900000E-01   1.00800           0
      1914 MEMB     15       POPC     HY       HAL2     0.900000E-01   1.00800           0
      1915 MEMB     15       POPC     O31      OSL     -0.490000       15.9994           0
      1916 MEMB     15       POPC     C31      CL       0.900000       12.0110           0
      1917 MEMB     15       POPC     O32      OBL     -0.630000       15.9994           0
      1918 MEMB     15       POPC     C32      CTL2    -0.220000       12.0110           0
      1919 MEMB     15       POPC     H2X      HAL2     0.900000E-01   1.00800           0
      1920 MEMB     15       POPC     H2Y      HAL2     0.900000E-01   1.00800           0
      1921 MEMB     15       POPC     C23      CTL2    -0.180000       12.0110           0
      1922 MEMB     15       POPC     H3R      HAL2     0.900000E-01   1.00800           0
      1923 MEMB     15       POPC     H3S      HAL2     0.900000E-01   1.00800           0
      1924 MEMB     15       POPC     C24      CTL2    -0.180000       12.0110           0
      1925 MEMB     15       POPC     H4R      HAL2     0.900000E-01   1.00800           0
      1926 MEMB     15       POPC     H4S      HAL2     0.900000E-01   1.00800           0
      1927 MEMB     15       POPC     C25      CTL2    -0.180000       12.0110           0
      1928 MEMB     15       POPC     H5R      HAL2     0.900000E-01   1.00800           0
      1929 MEMB     15       POPC     H5S      HAL2     0.900000E-01   1.00800           0
      1930 MEMB     15       POPC     C26      CTL2    -0.180000       12.0110           0
      1931 MEMB     15       POPC     H6R      HAL2     0.900000E-01   1.00800           0
      1932 MEMB     15       POPC     H6S      HAL2     0.900000E-01   1.00800           0
      1933 MEMB     15       POPC     C27      CTL2    -0.180000       12.0110           0
      1934 MEMB     15       POPC     H7R      HAL2     0.900000E-01   1.00800           0
      1935 MEMB     15       POPC     H7S      HAL2     0.900000E-01   1.00800           0
      1936 MEMB     15       POPC     C28      CTL2    -0.180000       12.0110           0
      1937 MEMB     15       POPC     H8R      HAL2     0.900000E-01   1.00800           0
      1938 MEMB     15       POPC     H8S      HAL2     0.900000E-01   1.00800           0
      1939 MEMB     15       POPC     C29      CEL1    -0.150000       12.0110           0
      1940 MEMB     15       POPC     H91      HEL1     0.150000       1.00800           0
      1941 MEMB     15       POPC     C210     CEL1    -0.150000       12.0110           0
      1942 MEMB     15       POPC     H101     HEL1     0.150000       1.00800           0
      1943 MEMB     15       POPC     C211     CTL2    -0.180000       12.0110           0
      1944 MEMB     15       POPC     H11R     HAL2     0.900000E-01   1.00800           0
      1945 MEMB     15       POPC     H11S     HAL2     0.900000E-01   1.00800           0
      1946 MEMB     15       POPC     C212     CTL2    -0.180000       12.0110           0
      1947 MEMB     15       POPC     H12R     HAL2     0.900000E-01   1.00800           0
      1948 MEMB     15       POPC     H12S     HAL2     0.900000E-01   1.00800           0
      1949 MEMB     15       POPC     C213     CTL2    -0.180000       12.0110           0
      1950 MEMB     15       POPC     H13R     HAL2     0.900000E-01   1.00800           0
      1951 MEMB     15       POPC     H13S     HAL2     0.900000E-01   1.00800           0
      1952 MEMB     15       POPC     C214     CTL2    -0.180000       12.0110           0
      1953 MEMB     15       POPC     H14R     HAL2     0.900000E-01   1.00800           0
      1954 MEMB     15       POPC     H14S     HAL2     0.900000E-01   1.00800           0
      1955 MEMB     15       POPC     C215     CTL2    -0.180000       12.0110           0
      1956 MEMB     15       POPC     H15R     HAL2     0.900000E-01   1.00800           0
      1957 MEMB     15       POPC     H15S     HAL2     0.900000E-01   1.00800           0
      1958 MEMB     15       POPC     C216     CTL2    -0.180000       12.0110           0
      1959 MEMB     15       POPC     H16R     HAL2     0.900000E-01   1.00800           0
      1960 MEMB     15       POPC     H16S     HAL2     0.900000E-01   1.00800           0
      1961 MEMB     15       POPC     C217     CTL2    -0.180000       12.0110           0
      1962 MEMB     15       POPC     H17R     HAL2     0.900000E-01   1.00800           0
      1963 MEMB     15       POPC     H17S     HAL2     0.900000E-01   1.00800           0
      1964 MEMB     15       POPC     C218     CTL3    -0.270000       12.0110           0
      1965 MEMB     15       POPC     H18R     HAL3     0.900000E-01   1.00800           0
      1966 MEMB     15       POPC     H18S     HAL3     0.900000E-01   1.00800           0
      1967 MEMB     15       POPC     H18T     HAL3     0.900000E-01   1.00800           0
      1968 MEMB     15       POPC     C33      CTL2    -0.180000       12.0110           0
      1969 MEMB     15       POPC     H3X      HAL2     0.900000E-01   1.00800           0
      1970 MEMB     15       POPC     H3Y      HAL2     0.900000E-01   1.00800           0
      1971 MEMB     15       POPC     C34      CTL2    -0.180000       12.0110           0
      1972 MEMB     15       POPC     H4X      HAL2     0.900000E-01   1.00800           0
      1973 MEMB     15       POPC     H4Y      HAL2     0.900000E-01   1.00800           0
      1974 MEMB     15       POPC     C35      CTL2    -0.180000       12.0110           0
      1975 MEMB     15       POPC     H5X      HAL2     0.900000E-01   1.00800           0
      1976 MEMB     15       POPC     H5Y      HAL2     0.900000E-01   1.00800           0
      1977 MEMB     15       POPC     C36      CTL2    -0.180000       12.0110           0
      1978 MEMB     15       POPC     H6X      HAL2     0.900000E-01   1.00800           0
      1979 MEMB     15       POPC     H6Y      HAL2     0.900000E-01   1.00800           0
      1980 MEMB     15       POPC     C37      CTL2    -0.180000       12.0110           0
      1981 MEMB     15       POPC     H7X      HAL2     0.900000E-01   1.00800           0
      1982 MEMB     15       POPC     H7Y      HAL2     0.900000E-01   1.00800           0
      1983 MEMB     15       POPC     C38      CTL2    -0.180000       12.0110           0
      1984 MEMB     15       POPC     H8X      HAL2     0.900000E-01   1.00800           0
      1985 MEMB     15       POPC     H8Y      HAL2     0.900000E-01   1.00800           0
      1986 MEMB     15       POPC     C39      CTL2    -0.180000       12.0110           0
      1987 MEMB     15       POPC     H9X      HAL2     0.900000E-01   1.00800           0
      1988 MEMB     15       POPC     H9Y      HAL2     0.900000E-01   1.00800           0
      1989 MEMB     15       POPC     C310     CTL2    -0.180000       12.0110           0
      1990 MEMB     15       POPC     H10X     HAL2     0.900000E-01   1.00800           0
      1991 MEMB     15       POPC     H10Y     HAL2     0.900000E-01   1.00800           0
      1992 MEMB     15       POPC     C311     CTL2    -0.180000       12.0110           0
      1993 MEMB     15       POPC     H11X     HAL2     0.900000E-01   1.00800           0
      1994 MEMB     15       POPC     H11Y     HAL2     0.900000E-01   1.00800           0
      1995 MEMB     15       POPC     C312     CTL2    -0.180000       12.0110           0
      1996 MEMB     15       POPC     H12X     HAL2     0.900000E-01   1.00800           0
      1997 MEMB     15       POPC     H12Y     HAL2     0.900000E-01   1.00800           0
      1998 MEMB     15       POPC     C313     CTL2    -0.180000       12.0110           0
      1999 MEMB     15       POPC     H13X     HAL2     0.900000E-01   1.00800           0
      2000 MEMB     15       POPC     H13Y     HAL2     0.900000E-01   1.00800           0
      2001 MEMB     15       POPC     C314     CTL2    -0.180000       12.0110           0
      2002 MEMB     15       POPC     H14X     HAL2     0.900000E-01   1.00800           0
      2003 MEMB     15       POPC     H14Y     HAL2     0.900000E-01   1.00800           0
      2004 MEMB     15       POPC     C315     CTL2    -0.180000       12.0110           0
      2005 MEMB     15       POPC     H15X     HAL2     0.900000E-01   1.00800           0
      2006 MEMB     15       POPC     H15Y     HAL2     0.900000E-01   1.00800           0
      2007 MEMB     15       POPC     C316     CTL3    -0.270000       12.0110           0
      2008 MEMB     15       POPC     H16X     HAL3     0.900000E-01   1.00800           0
      2009 MEMB     15       POPC     H16Y     HAL3     0.900000E-01   1.00800           0
      2010 MEMB     15       POPC     H16Z     HAL3     0.900000E-01   1.00800           0
      2011 MEMB     16       POPC     N        NTL     -0.600000       14.0070           0
      2012 MEMB     16       POPC     C12      CTL2    -0.100000       12.0110           0
      2013 MEMB     16       POPC     H12A     HL       0.250000       1.00800           0
      2014 MEMB     16       POPC     H12B     HL       0.250000       1.00800           0
      2015 MEMB     16       POPC     C13      CTL5    -0.350000       12.0110           0
      2016 MEMB     16       POPC     H13A     HL       0.250000       1.00800           0
      2017 MEMB     16       POPC     H13B     HL       0.250000       1.00800           0
      2018 MEMB     16       POPC     H13C     HL       0.250000       1.00800           0
      2019 MEMB     16       POPC     C14      CTL5    -0.350000       12.0110           0
      2020 MEMB     16       POPC     H14A     HL       0.250000       1.00800           0
      2021 MEMB     16       POPC     H14B     HL       0.250000       1.00800           0
      2022 MEMB     16       POPC     H14C     HL       0.250000       1.00800           0
      2023 MEMB     16       POPC     C15      CTL5    -0.350000       12.0110           0
      2024 MEMB     16       POPC     H15A     HL       0.250000       1.00800           0
      2025 MEMB     16       POPC     H15B     HL       0.250000       1.00800           0
      2026 MEMB     16       POPC     H15C     HL       0.250000       1.00800           0
      2027 MEMB     16       POPC     C11      CTL2    -0.800000E-01   12.0110           0
      2028 MEMB     16       POPC     H11A     HAL2     0.900000E-01   1.00800           0
      2029 MEMB     16       POPC     H11B     HAL2     0.900000E-01   1.00800           0
      2030 MEMB     16       POPC     P        PL        1.50000       30.9740           0
      2031 MEMB     16       POPC     O13      O2L     -0.780000       15.9994           0
      2032 MEMB     16       POPC     O14      O2L     -0.780000       15.9994           0
      2033 MEMB     16       POPC     O12      OSLP    -0.570000       15.9994           0
      2034 MEMB     16       POPC     O11      OSLP    -0.570000       15.9994           0
      2035 MEMB     16       POPC     C1       CTL2    -0.800000E-01   12.0110           0
      2036 MEMB     16       POPC     HA       HAL2     0.900000E-01   1.00800           0
      2037 MEMB     16       POPC     HB       HAL2     0.900000E-01   1.00800           0
      2038 MEMB     16       POPC     C2       CTL1     0.170000       12.0110           0
      2039 MEMB     16       POPC     HS       HAL1     0.900000E-01   1.00800           0
      2040 MEMB     16       POPC     O21      OSL     -0.490000       15.9994           0
      2041 MEMB     16       POPC     C21      CL       0.900000       12.0110           0
      2042 MEMB     16       POPC     O22      OBL     -0.630000       15.9994           0
      2043 MEMB     16       POPC     C22      CTL2    -0.220000       12.0110           0
      2044 MEMB     16       POPC     H2R      HAL2     0.900000E-01   1.00800           0
      2045 MEMB     16       POPC     H2S      HAL2     0.900000E-01   1.00800           0
      2046 MEMB     16       POPC     C3       CTL2     0.800000E-01   12.0110           0
      2047 MEMB     16       POPC     HX       HAL2     0.900000E-01   1.00800           0
      2048 MEMB     16       POPC     HY       HAL2     0.900000E-01   1.00800           0
      2049 MEMB     16       POPC     O31      OSL     -0.490000       15.9994           0
      2050 MEMB     16       POPC     C31      CL       0.900000       12.0110           0
      2051 MEMB     16       POPC     O32      OBL     -0.630000       15.9994           0
      2052 MEMB     16       POPC     C32      CTL2    -0.220000       12.0110           0
      2053 MEMB     16       POPC     H2X      HAL2     0.900000E-01   1.00800           0
      2054 MEMB     16       POPC     H2Y      HAL2     0.900000E-01   1.00800           0
      2055 MEMB     16       POPC     C23      CTL2    -0.180000       12.0110           0
      2056 MEMB     16       POPC     H3R      HAL2     0.900000E-01   1.00800           0
      2057 MEMB     16       POPC     H3S      HAL2     0.900000E-01   1.00800           0
      2058 MEMB     16       POPC     C24      CTL2    -0.180000       12.0110           0
      2059 MEMB     16       POPC     H4R      HAL2     0.900000E-01   1.00800           0
      2060 MEMB     16       POPC     H4S      HAL2     0.900000E-01   1.00800           0
      2061 MEMB     16       POPC     C25      CTL2    -0.180000       12.0110           0
      2062 MEMB     16       POPC     H5R      HAL2     0.900000E-01   1.00800           0
      2063 MEMB     16       POPC     H5S      HAL2     0.900000E-01   1.00800           0
      2064 MEMB     16       POPC     C26      CTL2    -0.180000       12.0110           0
      2065 MEMB     16       POPC     H6R      HAL2     0.900000E-01   1.00800           0
      2066 MEMB     16       POPC     H6S      HAL2     0.900000E-01   1.00800           0
      2067 MEMB     16       POPC     C27      CTL2    -0.180000       12.0110           0
      2068 MEMB     16       POPC     H7R      HAL2     0.900000E-01   1.00800           0
      2069 MEMB     16       POPC     H7S      HAL2     0.900000E-01   1.00800           0
      2070 MEMB     16       POPC     C28      CTL2    -0.180000       12.0110           0
      2071 MEMB     16       POPC     H8R      HAL2     0.900000E-01   1.00800           0
      2072 MEMB     16       POPC     H8S      HAL2     0.900000E-01   1.00800           0
      2073 MEMB     16       POPC     C29      CEL1    -0.150000       12.0110           0
      2074 MEMB     16       POPC     H91      HEL1     0.150000       1.00800           0
      2075 MEMB     16       POPC     C210     CEL1    -0.150000       12.0110           0
      2076 MEMB     16       POPC     H101     HEL1     0.150000       1.00800           0
      2077 MEMB     16       POPC     C211     CTL2    -0.180000       12.0110           0
      2078 MEMB     16       POPC     H11R     HAL2     0.900000E-01   1.00800           0
      2079 MEMB     16       POPC     H11S     HAL2     0.900000E-01   1.00800           0
      2080 MEMB     16       POPC     C212     CTL2    -0.180000       12.0110           0
      2081 MEMB     16       POPC     H12R     HAL2     0.900000E-01   1.00800           0
      2082 MEMB     16       POPC     H12S     HAL2     0.900000E-01   1.00800           0
      2083 MEMB     16       POPC     C213     CTL2    -0.180000       12.0110           0
      2084 MEMB     16       POPC     H13R     HAL2     0.900000E-01   1.00800           0
      2085 MEMB     16       POPC     H13S     HAL2     0.900000E-01   1.00800           0
      2086 MEMB     16       POPC     C214     CTL2    -0.180000       12.0110           0
      2087 MEMB     16       POPC     H14R     HAL2     0.900000E-01   1.00800           0
      2088 MEMB     16       POPC     H14S     HAL2     0.900000E-01   1.00800           0
      2089 MEMB     16       POPC     C215     CTL2    -0.180000       12.0110           0
      2090 MEMB     16       POPC     H15R     HAL2     0.900000E-01   1.00800           0
      2091 MEMB     16       POPC     H15S     HAL2     0.900000E-01   1.00800           0
      2092 MEMB     16       POPC     C216     CTL2    -0.180000       12.0110           0
      2093 MEMB     16       POPC     H16R     HAL2     0.900000E-01   1.00800           0
      2094 MEMB     16       POPC     H16S     HAL2     0.900000E-01   1.00800           0
      2095 MEMB     16       POPC     C217     CTL2    -0.180000       12.0110           0
      2096 MEMB     16       POPC     H17R     HAL2     0.900000E-01   1.00800           0
      2097 MEMB     16       POPC     H17S     HAL2     0.900000E-01   1.00800           0
      2098 MEMB     16       POPC     C218     CTL3    -0.270000       12.0110           0
      2099 MEMB     16       POPC     H18R     HAL3     0.900000E-01   1.00800           0
      2100 MEMB     16       POPC     H18S     HAL3     0.900000E-01   1.00800           0
      2101 MEMB     16       POPC     H18T     HAL3     0.900000E-01   1.00800           0
      2102 MEMB     16       POPC     C33      CTL2    -0.180000       12.0110           0
      2103 MEMB     16       POPC     H3X      HAL2     0.900000E-01   1.00800           0
      2104 MEMB     16       POPC     H3Y      HAL2     0.900000E-01   1.00800           0
      2105 MEMB     16       POPC     C34      CTL2    -0.180000       12.0110           0
      2106 MEMB     16       POPC     H4X      HAL2     0.900000E-01   1.00800           0
      2107 MEMB     16       POPC     H4Y      HAL2     0.900000E-01   1.00800           0
      2108 MEMB     16       POPC     C35      CTL2    -0.180000       12.0110           0
      2109 MEMB     16       POPC     H5X      HAL2     0.900000E-01   1.00800           0
      2110 MEMB     16       POPC     H5Y      HAL2     0.900000E-01   1.00800           0
      2111 MEMB     16       POPC     C36      CTL2    -0.180000       12.0110           0
      2112 MEMB     16       POPC     H6X      HAL2     0.900000E-01   1.00800           0
      2113 MEMB     16       POPC     H6Y      HAL2     0.900000E-01   1.00800           0
      2114 MEMB     16       POPC     C37      CTL2    -0.180000       12.0110           0
      2115 MEMB     16       POPC     H7X      HAL2     0.900000E-01   1.00800           0
      2116 MEMB     16       POPC     H7Y      HAL2     0.900000E-01   1.00800           0
      2117 MEMB     16       POPC     C38      CTL2    -0.180000       12.0110           0
      2118 MEMB     16       POPC     H8X      HAL2     0.900000E-01   1.00800           0
      2119 MEMB     16       POPC     H8Y      HAL2     0.900000E-01   1.00800           0
      2120 MEMB     16       POPC     C39      CTL2    -0.180000       12.0110           0
      2121 MEMB     16       POPC     H9X      HAL2     0.900000E-01   1.00800           0
      2122 MEMB     16       POPC     H9Y      HAL2     0.900000E-01   1.00800           0
      2123 MEMB     16       POPC     C310     CTL2    -0.180000       12.0110           0
      2124 MEMB     16       POPC     H10X     HAL2     0.900000E-01   1.00800           0
      2125 MEMB     16       POPC     H10Y     HAL2     0.900000E-01   1.00800           0
      2126 MEMB     16       POPC     C311     CTL2    -0.180000       12.0110           0
      2127 MEMB     16       POPC     H11X     HAL2     0.900000E-01   1.00800           0
      2128 MEMB     16       POPC     H11Y     HAL2     0.900000E-01   1.00800           0
      2129 MEMB     16       POPC     C312     CTL2    -0.180000       12.0110           0
      2130 MEMB     16       POPC     H12X     HAL2     0.900000E-01   1.00800           0
      2131 MEMB     16       POPC     H12Y     HAL2     0.900000E-01   1.00800           0
      2132 MEMB     16       POPC     C313     CTL2    -0.180000       12.0110           0
      2133 MEMB     16       POPC     H13X     HAL2     0.900000E-01   1.00800           0
      2134 MEMB     16       POPC     H13Y     HAL2     0.900000E-01   1.00800           0
      2135 MEMB     16       POPC     C314     CTL2    -0.180000       12.0110           0
      2136 MEMB     16       POPC     H14X     HAL2     0.900000E-01   1.00800           0
      2137 MEMB     16       POPC     H14Y     HAL2     0.900000E-01   1.00800           0
      2138 MEMB     16       POPC     C315     CTL2    -0.180000       12.0110           0
      2139 MEMB     16       POPC     H15X     HAL2     0.900000E-01   1.00800           0
      2140 MEMB     16       POPC     H15Y     HAL2     0.900000E-01   1.00800           0
      2141 MEMB     16       POPC     C316     CTL3    -0.270000       12.0110           0
      2142 MEMB     16       POPC     H16X     HAL3     0.900000E-01   1.00800           0
      2143 MEMB     16       POPC     H16Y     HAL3     0.900000E-01   1.00800           0
      2144 MEMB     16       POPC     H16Z     HAL3     0.900000E-01   1.00800           0
      2145 MEMB     17       POPC     N        NTL     -0.600000       14.0070           0
      2146 MEMB     17       POPC     C12      CTL2    -0.100000       12.0110           0
      2147 MEMB     17       POPC     H12A     HL       0.250000       1.00800           0
      2148 MEMB     17       POPC     H12B     HL       0.250000       1.00800           0
      2149 MEMB     17       POPC     C13      CTL5    -0.350000       12.0110           0
      2150 MEMB     17       POPC     H13A     HL       0.250000       1.00800           0
      2151 MEMB     17       POPC     H13B     HL       0.250000       1.00800           0
      2152 MEMB     17       POPC     H13C     HL       0.250000       1.00800           0
      2153 MEMB     17       POPC     C14      CTL5    -0.350000       12.0110           0
      2154 MEMB     17       POPC     H14A     HL       0.250000       1.00800           0
      2155 MEMB     17       POPC     H14B     HL       0.250000       1.00800           0
      2156 MEMB     17       POPC     H14C     HL       0.250000       1.00800           0
      2157 MEMB     17       POPC     C15      CTL5    -0.350000       12.0110           0
      2158 MEMB     17       POPC     H15A     HL       0.250000       1.00800           0
      2159 MEMB     17       POPC     H15B     HL       0.250000       1.00800           0
      2160 MEMB     17       POPC     H15C     HL       0.250000       1.00800           0
      2161 MEMB     17       POPC     C11      CTL2    -0.800000E-01   12.0110           0
      2162 MEMB     17       POPC     H11A     HAL2     0.900000E-01   1.00800           0
      2163 MEMB     17       POPC     H11B     HAL2     0.900000E-01   1.00800           0
      2164 MEMB     17       POPC     P        PL        1.50000       30.9740           0
      2165 MEMB     17       POPC     O13      O2L     -0.780000       15.9994           0
      2166 MEMB     17       POPC     O14      O2L     -0.780000       15.9994           0
      2167 MEMB     17       POPC     O12      OSLP    -0.570000       15.9994           0
      2168 MEMB     17       POPC     O11      OSLP    -0.570000       15.9994           0
      2169 MEMB     17       POPC     C1       CTL2    -0.800000E-01   12.0110           0
      2170 MEMB     17       POPC     HA       HAL2     0.900000E-01   1.00800           0
      2171 MEMB     17       POPC     HB       HAL2     0.900000E-01   1.00800           0
      2172 MEMB     17       POPC     C2       CTL1     0.170000       12.0110           0
      2173 MEMB     17       POPC     HS       HAL1     0.900000E-01   1.00800           0
      2174 MEMB     17       POPC     O21      OSL     -0.490000       15.9994           0
      2175 MEMB     17       POPC     C21      CL       0.900000       12.0110           0
      2176 MEMB     17       POPC     O22      OBL     -0.630000       15.9994           0
      2177 MEMB     17       POPC     C22      CTL2    -0.220000       12.0110           0
      2178 MEMB     17       POPC     H2R      HAL2     0.900000E-01   1.00800           0
      2179 MEMB     17       POPC     H2S      HAL2     0.900000E-01   1.00800           0
      2180 MEMB     17       POPC     C3       CTL2     0.800000E-01   12.0110           0
      2181 MEMB     17       POPC     HX       HAL2     0.900000E-01   1.00800           0
      2182 MEMB     17       POPC     HY       HAL2     0.900000E-01   1.00800           0
      2183 MEMB     17       POPC     O31      OSL     -0.490000       15.9994           0
      2184 MEMB     17       POPC     C31      CL       0.900000       12.0110           0
      2185 MEMB     17       POPC     O32      OBL     -0.630000       15.9994           0
      2186 MEMB     17       POPC     C32      CTL2    -0.220000       12.0110           0
      2187 MEMB     17       POPC     H2X      HAL2     0.900000E-01   1.00800           0
      2188 MEMB     17       POPC     H2Y      HAL2     0.900000E-01   1.00800           0
      2189 MEMB     17       POPC     C23      CTL2    -0.180000       12.0110           0
      2190 MEMB     17       POPC     H3R      HAL2     0.900000E-01   1.00800           0
      2191 MEMB     17       POPC     H3S      HAL2     0.900000E-01   1.00800           0
      2192 MEMB     17       POPC     C24      CTL2    -0.180000       12.0110           0
      2193 MEMB     17       POPC     H4R      HAL2     0.900000E-01   1.00800           0
      2194 MEMB     17       POPC     H4S      HAL2     0.900000E-01   1.00800           0
      2195 MEMB     17       POPC     C25      CTL2    -0.180000       12.0110           0
      2196 MEMB     17       POPC     H5R      HAL2     0.900000E-01   1.00800           0
      2197 MEMB     17       POPC     H5S      HAL2     0.900000E-01   1.00800           0
      2198 MEMB     17       POPC     C26      CTL2    -0.180000       12.0110           0
      2199 MEMB     17       POPC     H6R      HAL2     0.900000E-01   1.00800           0
      2200 MEMB     17       POPC     H6S      HAL2     0.900000E-01   1.00800           0
      2201 MEMB     17       POPC     C27      CTL2    -0.180000       12.0110           0
      2202 MEMB     17       POPC     H7R      HAL2     0.900000E-01   1.00800           0
      2203 MEMB     17       POPC     H7S      HAL2     0.900000E-01   1.00800           0
      2204 MEMB     17       POPC     C28      CTL2    -0.180000       12.0110           0
      2205 MEMB     17       POPC     H8R      HAL2     0.900000E-01   1.00800           0
      2206 MEMB     17       POPC     H8S      HAL2     0.900000E-01   1.00800           0
      2207 MEMB     17       POPC     C29      CEL1    -0.150000       12.0110           0
      2208 MEMB     17       POPC     H91      HEL1     0.150000       1.00800           0
      2209 MEMB     17       POPC     C210     CEL1    -0.150000       12.0110           0
      2210 MEMB     17       POPC     H101     HEL1     0.150000       1.00800           0
      2211 MEMB     17       POPC     C211     CTL2    -0.180000       12.0110           0
      2212 MEMB     17       POPC     H11R     HAL2     0.900000E-01   1.00800           0
      2213 MEMB     17       POPC     H11S     HAL2     0.900000E-01   1.00800           0
      2214 MEMB     17       POPC     C212     CTL2    -0.180000       12.0110           0
      2215 MEMB     17       POPC     H12R     HAL2     0.900000E-01   1.00800           0
      2216 MEMB     17       POPC     H12S     HAL2     0.900000E-01   1.00800           0
      2217 MEMB     17       POPC     C213     CTL2    -0.180000       12.0110           0
      2218 MEMB     17       POPC     H13R     HAL2     0.900000E-01   1.00800           0
      2219 MEMB     17       POPC     H13S     HAL2     0.900000E-01   1.00800           0
      2220 MEMB     17       POPC     C214     CTL2    -0.180000       12.0110           0
      2221 MEMB     17       POPC     H14R     HAL2     0.900000E-01   1.00800           0
      2222 MEMB     17       POPC     H14S     HAL2     0.900000E-01   1.00800           0
      2223 MEMB     17       POPC     C215     CTL2    -0.180000       12.0110           0
      2224 MEMB     17       POPC     H15R     HAL2     0.900000E-01   1.00800           0
      2225 MEMB     17       POPC     H15S     HAL2     0.900000E-01   1.00800           0
      2226 MEMB     17       POPC     C216     CTL2    -0.180000       12.0110           0
      2227 MEMB     17       POPC     H16R     HAL2     0.900000E-01   1.00800           0
      2228 MEMB     17       POPC     H16S     HAL2     0.900000E-01   1.00800           0
      2229 MEMB     17       POPC     C217     CTL2    -0.180000       12.0110           0
      2230 MEMB     17       POPC     H17R     HAL2     0.900000E-01   1.00800           0
      2231 MEMB     17       POPC     H17S     HAL2     0.900000E-01   1.00800           0
      2232 MEMB     17       POPC     C218     CTL3    -0.270000       12.0110           0
      2233 MEMB     17       POPC     H18R     HAL3     0.900000E-01   1.00800           0
      2234 MEMB     17       POPC     H18S     HAL3     0.900000E-01   1.00800           0
      2235 MEMB     17       POPC     H18T     HAL3     0.900000E-01   1.00800           0
      2236 MEMB     17       POPC     C33      CTL2    -0.180000       12.0110           0
      2237 MEMB     17       POPC     H3X      HAL2     0.900000E-01   1.00800           0
      2238 MEMB     17       POPC     H3Y      HAL2     0.900000E-01   1.00800           0
      2239 MEMB     17       POPC     C34      CTL2    -0.180000       12.0110           0
      2240 MEMB     17       POPC     H4X      HAL2     0.900000E-01   1.00800           0
      2241 MEMB     17       POPC     H4Y      HAL2     0.900000E-01   1.00800           0
      2242 MEMB     17       POPC     C35      CTL2    -0.180000       12.0110           0
      2243 MEMB     17       POPC     H5X      HAL2     0.900000E-01   1.00800           0
      2244 MEMB     17       POPC     H5Y      HAL2     0.900000E-01   1.00800           0
      2245 MEMB     17       POPC     C36      CTL2    -0.180000       12.0110           0
      2246 MEMB     17       POPC     H6X      HAL2     0.900000E-01   1.00800           0
      2247 MEMB     17       POPC     H6Y      HAL2     0.900000E-01   1.00800           0
      2248 MEMB     17       POPC     C37      CTL2    -0.180000       12.0110           0
      2249 MEMB     17       POPC     H7X      HAL2     0.900000E-01   1.00800           0
      2250 MEMB     17       POPC     H7Y      HAL2     0.900000E-01   1.00800           0
      2251 MEMB     17       POPC     C38      CTL2    -0.180000       12.0110           0
      2252 MEMB     17       POPC     H8X      HAL2     0.900000E-01   1.00800           0
      2253 MEMB     17       POPC     H8Y      HAL2     0.900000E-01   1.00800           0
      2254 MEMB     17       POPC     C39      CTL2    -0.180000       12.0110           0
      2255 MEMB     17       POPC     H9X      HAL2     0.900000E-01   1.00800           0
      2256 MEMB     17       POPC     H9Y      HAL2     0.900000E-01   1.00800           0
      2257 MEMB     17       POPC     C310     CTL2    -0.180000       12.0110           0
      2258 MEMB     17       POPC     H10X     HAL2     0.900000E-01   1.00800           0
      2259 MEMB     17       POPC     H10Y     HAL2     0.900000E-01   1.00800           0
      2260 MEMB     17       POPC     C311     CTL2    -0.180000       12.0110           0
      2261 MEMB     17       POPC     H11X     HAL2     0.900000E-01   1.00800           0
      2262 MEMB     17       POPC     H11Y     HAL2     0.900000E-01   1.00800           0
      2263 MEMB     17       POPC     C312     CTL2    -0.180000       12.0110           0
      2264 MEMB     17       POPC     H12X     HAL2     0.900000E-01   1.00800           0
      2265 MEMB     17       POPC     H12Y     HAL2     0.900000E-01   1.00800           0
      2266 MEMB     17       POPC     C313     CTL2    -0.180000       12.0110           0
      2267 MEMB     17       POPC     H13X     HAL2     0.900000E-01   1.00800           0
      2268 MEMB     17       POPC     H13Y     HAL2     0.900000E-01   1.00800           0
      2269 MEMB     17       POPC     C314     CTL2    -0.180000       12.0110           0
      2270 MEMB     17       POPC     H14X     HAL2     0.900000E-01   1.00800           0
      2271 MEMB     17       POPC     H14Y     HAL2     0.900000E-01   1.00800           0
      2272 MEMB     17       POPC     C315     CTL2    -0.180000       12.0110           0
      2273 MEMB     17       POPC     H15X     HAL2     0.900000E-01   1.00800           0
      2274 MEMB     17       POPC     H15Y     HAL2     0.900000E-01   1.00800           0
      2275 MEMB     17       POPC     C316     CTL3    -0.270000       12.0110           0
      2276 MEMB     17       POPC     H16X     HAL3     0.900000E-01   1.00800           0
      2277 MEMB     17       POPC     H16Y     HAL3     0.900000E-01   1.00800           0
      2278 MEMB     17       POPC     H16Z     HAL3     0.900000E-01   1.00800           0
      2279 MEMB     18       POPC     N        NTL     -0.600000       14.0070           0
      2280 MEMB     18       POPC     C12      CTL2    -0.100000       12.0110           0
      2281 MEMB     18       POPC     H12A     HL       0.250000       1.00800           0
      2282 MEMB     18       POPC     H12B     HL       0.250000       1.00800           0
      2283 MEMB     18       POPC     C13      CTL5    -0.350000       12.0110           0
      2284 MEMB     18       POPC     H13A     HL       0.250000       1.00800           0
      2285 MEMB     18       POPC     H13B     HL       0.250000       1.00800           0
      2286 MEMB     18       POPC     H13C     HL       0.250000       1.00800           0
      2287 MEMB     18       POPC     C14      CTL5    -0.350000       12.0110           0
      2288 MEMB     18       POPC     H14A     HL       0.250000       1.00800           0
      2289 MEMB     18       POPC     H14B     HL       0.250000       1.00800           0
      2290 MEMB     18       POPC     H14C     HL       0.250000       1.00800           0
      2291 MEMB     18       POPC     C15      CTL5    -0.350000       12.0110           0
      2292 MEMB     18       POPC     H15A     HL       0.250000       1.00800           0
      2293 MEMB     18       POPC     H15B     HL       0.250000       1.00800           0
      2294 MEMB     18       POPC     H15C     HL       0.250000       1.00800           0
      2295 MEMB     18       POPC     C11      CTL2    -0.800000E-01   12.0110           0
      2296 MEMB     18       POPC     H11A     HAL2     0.900000E-01   1.00800           0
      2297 MEMB     18       POPC     H11B     HAL2     0.900000E-01   1.00800           0
      2298 MEMB     18       POPC     P        PL        1.50000       30.9740           0
      2299 MEMB     18       POPC     O13      O2L     -0.780000       15.9994           0
      2300 MEMB     18       POPC     O14      O2L     -0.780000       15.9994           0
      2301 MEMB     18       POPC     O12      OSLP    -0.570000       15.9994           0
      2302 MEMB     18       POPC     O11      OSLP    -0.570000       15.9994           0
      2303 MEMB     18       POPC     C1       CTL2    -0.800000E-01   12.0110           0
      2304 MEMB     18       POPC     HA       HAL2     0.900000E-01   1.00800           0
      2305 MEMB     18       POPC     HB       HAL2     0.900000E-01   1.00800           0
      2306 MEMB     18       POPC     C2       CTL1     0.170000       12.0110           0
      2307 MEMB     18       POPC     HS       HAL1     0.900000E-01   1.00800           0
      2308 MEMB     18       POPC     O21      OSL     -0.490000       15.9994           0
      2309 MEMB     18       POPC     C21      CL       0.900000       12.0110           0
      2310 MEMB     18       POPC     O22      OBL     -0.630000       15.9994           0
      2311 MEMB     18       POPC     C22      CTL2    -0.220000       12.0110           0
      2312 MEMB     18       POPC     H2R      HAL2     0.900000E-01   1.00800           0
      2313 MEMB     18       POPC     H2S      HAL2     0.900000E-01   1.00800           0
      2314 MEMB     18       POPC     C3       CTL2     0.800000E-01   12.0110           0
      2315 MEMB     18       POPC     HX       HAL2     0.900000E-01   1.00800           0
      2316 MEMB     18       POPC     HY       HAL2     0.900000E-01   1.00800           0
      2317 MEMB     18       POPC     O31      OSL     -0.490000       15.9994           0
      2318 MEMB     18       POPC     C31      CL       0.900000       12.0110           0
      2319 MEMB     18       POPC     O32      OBL     -0.630000       15.9994           0
      2320 MEMB     18       POPC     C32      CTL2    -0.220000       12.0110           0
      2321 MEMB     18       POPC     H2X      HAL2     0.900000E-01   1.00800           0
      2322 MEMB     18       POPC     H2Y      HAL2     0.900000E-01   1.00800           0
      2323 MEMB     18       POPC     C23      CTL2    -0.180000       12.0110           0
      2324 MEMB     18       POPC     H3R      HAL2     0.900000E-01   1.00800           0
      2325 MEMB     18       POPC     H3S      HAL2     0.900000E-01   1.00800           0
      2326 MEMB     18       POPC     C24      CTL2    -0.180000       12.0110           0
      2327 MEMB     18       POPC     H4R      HAL2     0.900000E-01   1.00800           0
      2328 MEMB     18       POPC     H4S      HAL2     0.900000E-01   1.00800           0
      2329 MEMB     18       POPC     C25      CTL2    -0.180000       12.0110           0
      2330 MEMB     18       POPC     H5R      HAL2     0.900000E-01   1.00800           0
      2331 MEMB     18       POPC     H5S      HAL2     0.900000E-01   1.00800           0
      2332 MEMB     18       POPC     C26      CTL2    -0.180000       12.0110           0
      2333 MEMB     18       POPC     H6R      HAL2     0.900000E-01   1.00800           0
      2334 MEMB     18       POPC     H6S      HAL2     0.900000E-01   1.00800           0
      2335 MEMB     18       POPC     C27      CTL2    -0.180000       12.0110           0
      2336 MEMB     18       POPC     H7R      HAL2     0.900000E-01   1.00800           0
      2337 MEMB     18       POPC     H7S      HAL2     0.900000E-01   1.00800           0
      2338 MEMB     18       POPC     C28      CTL2    -0.180000       12.0110           0
      2339 MEMB     18       POPC     H8R      HAL2     0.900000E-01   1.00800           0
      2340 MEMB     18       POPC     H8S      HAL2     0.900000E-01   1.00800           0
      2341 MEMB     18       POPC     C29      CEL1    -0.150000       12.0110           0
      2342 MEMB     18       POPC     H91      HEL1     0.150000       1.00800           0
      2343 MEMB     18       POPC     C210     CEL1    -0.150000       12.0110           0
      2344 MEMB     18       POPC     H101     HEL1     0.150000       1.00800           0
      2345 MEMB     18       POPC     C211     CTL2    -0.180000       12.0110           0
      2346 MEMB     18       POPC     H11R     HAL2     0.900000E-01   1.00800           0
      2347 MEMB     18       POPC     H11S     HAL2     0.900000E-01   1.00800           0
      2348 MEMB     18       POPC     C212     CTL2    -0.180000       12.0110           0
      2349 MEMB     18       POPC     H12R     HAL2     0.900000E-01   1.00800           0
      2350 MEMB     18       POPC     H12S     HAL2     0.900000E-01   1.00800           0
      2351 MEMB     18       POPC     C213     CTL2    -0.180000       12.0110           0
      2352 MEMB     18       POPC     H13R     HAL2     0.900000E-01   1.00800           0
      2353 MEMB     18       POPC     H13S     HAL2     0.900000E-01   1.00800           0
      2354 MEMB     18       POPC     C214     CTL2    -0.180000       12.0110           0
      2355 MEMB     18       POPC     H14R     HAL2     0.900000E-01   1.00800           0
      2356 MEMB     18       POPC     H14S     HAL2     0.900000E-01   1.00800           0
      2357 MEMB     18       POPC     C215     CTL2    -0.180000       12.0110           0
      2358 MEMB     18       POPC     H15R     HAL2     0.900000E-01   1.00800           0
      2359 MEMB     18       POPC     H15S     HAL2     0.900000E-01   1.00800           0
      2360 MEMB     18       POPC     C216     CTL2    -0.180000       12.0110           0
      2361 MEMB     18       POPC     H16R     HAL2     0.900000E-01   1.00800           0
      2362 MEMB     18       POPC     H16S     HAL2     0.900000E-01   1.00800           0
      2363 MEMB     18       POPC     C217     CTL2    -0.180000       12.0110           0
      2364 MEMB     18       POPC     H17R     HAL2     0.900000E-01   1.00800           0
      2365 MEMB     18       POPC     H17S     HAL2     0.900000E-01   1.00800           0
      2366 MEMB     18       POPC     C218     CTL3    -0.270000       12.0110           0
      2367 MEMB     18       POPC     H18R     HAL3     0.900000E-01   1.00800           0
      2368 MEMB     18       POPC     H18S     HAL3     0.900000E-01   1.00800           0
      2369 MEMB     18       POPC     H18T     HAL3     0.900000E-01   1.00800           0
      2370 MEMB     18       POPC     C33      CTL2    -0.180000       12.0110           0
      2371 MEMB     18       POPC     H3X      HAL2     0.900000E-01   1.00800           0
      2372 MEMB     18       POPC     H3Y      HAL2     0.900000E-01   1.00800           0
      2373 MEMB     18       POPC     C34      CTL2    -0.180000       12.0110           0
      2374 MEMB     18       POPC     H4X      HAL2     0.900000E-01   1.00800           0
      2375 MEMB     18       POPC     H4Y      HAL2     0.900000E-01   1.00800           0
      2376 MEMB     18       POPC     C35      CTL2    -0.180000       12.0110           0
      2377 MEMB     18       POPC     H5X      HAL2     0.900000E-01   1.00800           0
      2378 MEMB     18       POPC     H5Y      HAL2     0.900000E-01   1.00800           0
      2379 MEMB     18       POPC     C36      CTL2    -0.180000       12.0110           0
      2380 MEMB     18       POPC     H6X      HAL2     0.900000E-01   1.00800           0
      2381 MEMB     18       POPC     H6Y      HAL2     0.900000E-01   1.00800           0
      2382 MEMB     18       POPC     C37      CTL2    -0.180000       12.0110           0
      2383 MEMB     18       POPC     H7X      HAL2     0.900000E-01   1.00800           0
      2384 MEMB     18       POPC     H7Y      HAL2     0.900000E-01   1.00800           0
      2385 MEMB     18       POPC     C38      CTL2    -0.180000       12.0110           0
      2386 MEMB     18       POPC     H8X      HAL2     0.900000E-01   1.00800           0
      2387 MEMB     18       POPC     H8Y      HAL2     0.900000E-01   1.00800           0
      2388 MEMB     18       POPC     C39      CTL2    -0.180000       12.0110           0
      2389 MEMB     18       POPC     H9X      HAL2     0.900000E-01   1.00800           0
      2390 MEMB     18       POPC     H9Y      HAL2     0.900000E-01   1.00800           0
      2391 MEMB     18       POPC     C310     CTL2    -0.180000       12.0110           0
      2392 MEMB     18       POPC     H10X     HAL2     0.900000E-01   1.00800           0
      2393 MEMB     18       POPC     H10Y     HAL2     0.900000E-01   1.00800           0
      2394 MEMB     18       POPC     C311     CTL2    -0.180000       12.0110           0
      2395 MEMB     18       POPC     H11X     HAL2     0.900000E-01   1.00800           0
      2396 MEMB     18       POPC     H11Y     HAL2     0.900000E-01   1.00800           0
      2397 MEMB     18       POPC     C312     CTL2    -0.180000       12.0110           0
      2398 MEMB     18       POPC     H12X     HAL2     0.900000E-01   1.00800           0
      2399 MEMB     18       POPC     H12Y     HAL2     0.900000E-01   1.00800           0
      2400 MEMB     18       POPC     C313     CTL2    -0.180000       12.0110           0
      2401 MEMB     18       POPC     H13X     HAL2     0.900000E-01   1.00800           0
      2402 MEMB     18       POPC     H13Y     HAL2     0.900000E-01   1.00800           0
      2403 MEMB     18       POPC     C314     CTL2    -0.180000       12.0110           0
      2404 MEMB     18       POPC     H14X     HAL2     0.900000E-01   1.00800           0
      2405 MEMB     18       POPC     H14Y     HAL2     0.900000E-01   1.00800           0
      2406 MEMB     18       POPC     C315     CTL2    -0.180000       12.0110           0
      2407 MEMB     18       POPC     H15X     HAL2     0.900000E-01   1.00800           0
      2408 MEMB     18       POPC     H15Y     HAL2     0.900000E-01   1.00800           0
      2409 MEMB     18       POPC     C316     CTL3    -0.270000       12.0110           0
      2410 MEMB     18       POPC     H16X     HAL3     0.900000E-01   1.00800           0
      2411 MEMB     18       POPC     H16Y     HAL3     0.900000E-01   1.00800           0
      2412 MEMB     18       POPC     H16Z     HAL3     0.900000E-01   1.00800           0
      2413 MEMB     19       POPC     N        NTL     -0.600000       14.0070           0
      2414 MEMB     19       POPC     C12      CTL2    -0.100000       12.0110           0
      2415 MEMB     19       POPC     H12A     HL       0.250000       1.00800           0
      2416 MEMB     19       POPC     H12B     HL       0.250000       1.00800           0
      2417 MEMB     19       POPC     C13      CTL5    -0.350000       12.0110           0
      2418 MEMB     19       POPC     H13A     HL       0.250000       1.00800           0
      2419 MEMB     19       POPC     H13B     HL       0.250000       1.00800           0
      2420 MEMB     19       POPC     H13C     HL       0.250000       1.00800           0
      2421 MEMB     19       POPC     C14      CTL5    -0.350000       12.0110           0
      2422 MEMB     19       POPC     H14A     HL       0.250000       1.00800           0
      2423 MEMB     19       POPC     H14B     HL       0.250000       1.00800           0
      2424 MEMB     19       POPC     H14C     HL       0.250000       1.00800           0
      2425 MEMB     19       POPC     C15      CTL5    -0.350000       12.0110           0
      2426 MEMB     19       POPC     H15A     HL       0.250000       1.00800           0
      2427 MEMB     19       POPC     H15B     HL       0.250000       1.00800           0
      2428 MEMB     19       POPC     H15C     HL       0.250000       1.00800           0
      2429 MEMB     19       POPC     C11      CTL2    -0.800000E-01   12.0110           0
      2430 MEMB     19       POPC     H11A     HAL2     0.900000E-01   1.00800           0
      2431 MEMB     19       POPC     H11B     HAL2     0.900000E-01   1.00800           0
      2432 MEMB     19       POPC     P        PL        1.50000       30.9740           0
      2433 MEMB     19       POPC     O13      O2L     -0.780000       15.9994           0
      2434 MEMB     19       POPC     O14      O2L     -0.780000       15.9994           0
      2435 MEMB     19       POPC     O12      OSLP    -0.570000       15.9994           0
      2436 MEMB     19       POPC     O11      OSLP    -0.570000       15.9994           0
      2437 MEMB     19       POPC     C1       CTL2    -0.800000E-01   12.0110           0
      2438 MEMB     19       POPC     HA       HAL2     0.900000E-01   1.00800           0
      2439 MEMB     19       POPC     HB       HAL2     0.900000E-01   1.00800           0
      2440 MEMB     19       POPC     C2       CTL1     0.170000       12.0110           0
      2441 MEMB     19       POPC     HS       HAL1     0.900000E-01   1.00800           0
      2442 MEMB     19       POPC     O21      OSL     -0.490000       15.9994           0
      2443 MEMB     19       POPC     C21      CL       0.900000       12.0110           0
      2444 MEMB     19       POPC     O22      OBL     -0.630000       15.9994           0
      2445 MEMB     19       POPC     C22      CTL2    -0.220000       12.0110           0
      2446 MEMB     19       POPC     H2R      HAL2     0.900000E-01   1.00800           0
      2447 MEMB     19       POPC     H2S      HAL2     0.900000E-01   1.00800           0
      2448 MEMB     19       POPC     C3       CTL2     0.800000E-01   12.0110           0
      2449 MEMB     19       POPC     HX       HAL2     0.900000E-01   1.00800           0
      2450 MEMB     19       POPC     HY       HAL2     0.900000E-01   1.00800           0
      2451 MEMB     19       POPC     O31      OSL     -0.490000       15.9994           0
      2452 MEMB     19       POPC     C31      CL       0.900000       12.0110           0
      2453 MEMB     19       POPC     O32      OBL     -0.630000       15.9994           0
      2454 MEMB     19       POPC     C32      CTL2    -0.220000       12.0110           0
      2455 MEMB     19       POPC     H2X      HAL2     0.900000E-01   1.00800           0
      2456 MEMB     19       POPC     H2Y      HAL2     0.900000E-01   1.00800           0
      2457 MEMB     19       POPC     C23      CTL2    -0.180000       12.0110           0
      2458 MEMB     19       POPC     H3R      HAL2     0.900000E-01   1.00800           0
      2459 MEMB     19       POPC     H3S      HAL2     0.900000E-01   1.00800           0
      2460 MEMB     19       POPC     C24      CTL2    -0.180000       12.0110           0
      2461 MEMB     19       POPC     H4R      HAL2     0.900000E-01   1.00800           0
      2462 MEMB     19       POPC     H4S      HAL2     0.900000E-01   1.00800           0
      2463 MEMB     19       POPC     C25      CTL2    -0.180000       12.0110           0
      2464 MEMB     19       POPC     H5R      HAL2     0.900000E-01   1.00800           0
      2465 MEMB     19       POPC     H5S      HAL2     0.900000E-01   1.00800           0
      2466 MEMB     19       POPC     C26      CTL2    -0.180000       12.0110           0
      2467 MEMB     19       POPC     H6R      HAL2     0.900000E-01   1.00800           0
      2468 MEMB     19       POPC     H6S      HAL2     0.900000E-01   1.00800           0
      2469 MEMB     19       POPC     C27      CTL2    -0.180000       12.0110           0
      2470 MEMB     19       POPC     H7R      HAL2     0.900000E-01   1.00800           0
      2471 MEMB     19       POPC     H7S      HAL2     0.900000E-01   1.00800           0
      2472 MEMB     19       POPC     C28      CTL2    -0.180000       12.0110           0
      2473 MEMB     19       POPC     H8R      HAL2     0.900000E-01   1.00800           0
      2474 MEMB     19       POPC     H8S      HAL2     0.900000E-01   1.00800           0
      2475 MEMB     19       POPC     C29      CEL1    -0.150000       12.0110           0
      2476 MEMB     19       POPC     H91      HEL1     0.150000       1.00800           0
      2477 MEMB     19       POPC     C210     CEL1    -0.150000       12.0110           0
      2478 MEMB     19       POPC     H101     HEL1     0.150000       1.00800           0
      2479 MEMB     19       POPC     C211     CTL2    -0.180000       12.0110           0
      2480 MEMB     19       POPC     H11R     HAL2     0.900000E-01   1.00800           0
      2481 MEMB     19       POPC     H11S     HAL2     0.900000E-01   1.00800           0
      2482 MEMB     19       POPC     C212     CTL2    -0.180000       12.0110           0
      2483 MEMB     19       POPC     H12R     HAL2     0.900000E-01   1.00800           0
      2484 MEMB     19       POPC     H12S     HAL2     0.900000E-01   1.00800           0
      2485 MEMB     19       POPC     C213     CTL2    -0.180000       12.0110           0
      2486 MEMB     19       POPC     H13R     HAL2     0.900000E-01   1.00800           0
      2487 MEMB     19       POPC     H13S     HAL2     0.900000E-01   1.00800           0
      2488 MEMB     19       POPC     C214     CTL2    -0.180000       12.0110           0
      2489 MEMB     19       POPC     H14R     HAL2     0.900000E-01   1.00800           0
      2490 MEMB     19       POPC     H14S     HAL2     0.900000E-01   1.00800           0
      2491 MEMB     19       POPC     C215     CTL2    -0.180000       12.0110           0
      2492 MEMB     19       POPC     H15R     HAL2     0.900000E-01   1.00800           0
      2493 MEMB     19       POPC     H15S     HAL2     0.900000E-01   1.00800           0
      2494 MEMB     19       POPC     C216     CTL2    -0.180000       12.0110           0
      2495 MEMB     19       POPC     H16R     HAL2     0.900000E-01   1.00800           0
      2496 MEMB     19       POPC     H16S     HAL2     0.900000E-01   1.00800           0
      2497 MEMB     19       POPC     C217     CTL2    -0.180000       12.0110           0
      2498 MEMB     19       POPC     H17R     HAL2     0.900000E-01   1.00800           0
      2499 MEMB     19       POPC     H17S     HAL2     0.900000E-01   1.00800           0
      2500 MEMB     19       POPC     C218     CTL3    -0.270000       12.0110           0
      2501 MEMB     19       POPC     H18R     HAL3     0.900000E-01   1.00800           0
      2502 MEMB     19       POPC     H18S     HAL3     0.900000E-01   1.00800           0
      2503 MEMB     19       POPC     H18T     HAL3     0.900000E-01   1.00800           0
      2504 MEMB     19       POPC     C33      CTL2    -0.180000       12.0110           0
      2505 MEMB     19       POPC     H3X      HAL2     0.900000E-01   1.00800           0
      2506 MEMB     19       POPC     H3Y      HAL2     0.900000E-01   1.00800           0
      2507 MEMB     19       POPC     C34      CTL2    -0.180000       12.0110           0
      2508 MEMB     19       POPC     H4X      HAL2     0.900000E-01   1.00800           0
      2509 MEMB     19       POPC     H4Y      HAL2     0.900000E-01   1.00800           0
      2510 MEMB     19       POPC     C35      CTL2    -0.180000       12.0110           0
      2511 MEMB     19       POPC     H5X      HAL2     0.900000E-01   1.00800           0
      2512 MEMB     19       POPC     H5Y      HAL2     0.900000E-01   1.00800           0
      2513 MEMB     19       POPC     C36      CTL2    -0.180000       12.0110           0
      2514 MEMB     19       POPC     H6X      HAL2     0.900000E-01   1.00800           0
      2515 MEMB     19       POPC     H6Y      HAL2     0.900000E-01   1.00800           0
      2516 MEMB     19       POPC     C37      CTL2    -0.180000       12.0110           0
      2517 MEMB     19       POPC     H7X      HAL2     0.900000E-01   1.00800           0
      2518 MEMB     19       POPC     H7Y      HAL2     0.900000E-01   1.00800           0
      2519 MEMB     19       POPC     C38      CTL2    -0.180000       12.0110           0
      2520 MEMB     19       POPC     H8X      HAL2     0.900000E-01   1.00800           0
      2521 MEMB     19       POPC     H8Y      HAL2     0.900000E-01   1.00800           0
      2522 MEMB     19       POPC     C39      CTL2    -0.180000       12.0110           0
      2523 MEMB     19       POPC     H9X      HAL2     0.900000E-01   1.00800           0
      2524 MEMB     19       POPC     H9Y      HAL2     0.900000E-01   1.00800           0
      2525 MEMB     19       POPC     C310     CTL2    -0.180000       12.0110           0
      2526 MEMB     19       POPC     H10X     HAL2     0.900000E-01   1.00800           0
      2527 MEMB     19       POPC     H10Y     HAL2     0.900000E-01   1.00800           0
      2528 MEMB     19       POPC     C311     CTL2    -0.180000       12.0110           0
      2529 MEMB     19       POPC     H11X     HAL2     0.900000E-01   1.00800           0
      2530 MEMB     19       POPC     H11Y     HAL2     0.900000E-01   1.00800           0
      2531 MEMB     19       POPC     C312     CTL2    -0.180000       12.0110           0
      2532 MEMB     19       POPC     H12X     HAL2     0.900000E-01   1.00800           0
      2533 MEMB     19       POPC     H12Y     HAL2     0.900000E-01   1.00800           0
      2534 MEMB     19       POPC     C313     CTL2    -0.180000       12.0110           0
      2535 MEMB     19       POPC     H13X     HAL2     0.900000E-01   1.00800           0
      2536 MEMB     19       POPC     H13Y     HAL2     0.900000E-01   1.00800           0
      2537 MEMB     19       POPC     C314     CTL2    -0.180000       12.0110           0
      2538 MEMB     19       POPC     H14X     HAL2     0.900000E-01   1.00800           0
      2539 MEMB     19       POPC     H14Y     HAL2     0.900000E-01   1.00800           0
      2540 MEMB     19       POPC     C315     CTL2    -0.180000       12.0110           0
      2541 MEMB     19       POPC     H15X     HAL2     0.900000E-01   1.00800           0
      2542 MEMB     19       POPC     H15Y     HAL2     0.900000E-01   1.00800           0
      2543 MEMB     19       POPC     C316     CTL3    -0.270000       12.0110           0
      2544 MEMB     19       POPC     H16X     HAL3     0.900000E-01   1.00800           0
      2545 MEMB     19       POPC     H16Y     HAL3     0.900000E-01   1.00800           0
      2546 MEMB     19       POPC     H16Z     HAL3     0.900000E-01   1.00800           0
      2547 MEMB     20       POPC     N        NTL     -0.600000       14.0070           0
      2548 MEMB     20       POPC     C12      CTL2    -0.100000       12.0110           0
      2549 MEMB     20       POPC     H12A     HL       0.250000       1.00800           0
      2550 MEMB     20       POPC     H12B     HL       0.250000       1.00800           0
      2551 MEMB     20       POPC     C13      CTL5    -0.350000       12.0110           0
      2552 MEMB     20       POPC     H13A     HL       0.250000       1.00800           0
      2553 MEMB     20       POPC     H13B     HL       0.250000       1.00800           0
      2554 MEMB     20       POPC     H13C     HL       0.250000       1.00800           0
      2555 MEMB     20       POPC     C14      CTL5    -0.350000       12.0110           0
      2556 MEMB     20       POPC     H14A     HL       0.250000       1.00800           0
      2557 MEMB     20       POPC     H14B     HL       0.250000       1.00800           0
      2558 MEMB     20       POPC     H14C     HL       0.250000       1.00800           0
      2559 MEMB     20       POPC     C15      CTL5    -0.350000       12.0110           0
      2560 MEMB     20       POPC     H15A     HL       0.250000       1.00800           0
      2561 MEMB     20       POPC     H15B     HL       0.250000       1.00800           0
      2562 MEMB     20       POPC     H15C     HL       0.250000       1.00800           0
      2563 MEMB     20       POPC     C11      CTL2    -0.800000E-01   12.0110           0
      2564 MEMB     20       POPC     H11A     HAL2     0.900000E-01   1.00800           0
      2565 MEMB     20       POPC     H11B     HAL2     0.900000E-01   1.00800           0
      2566 MEMB     20       POPC     P        PL        1.50000       30.9740           0
      2567 MEMB     20       POPC     O13      O2L     -0.780000       15.9994           0
      2568 MEMB     20       POPC     O14      O2L     -0.780000       15.9994           0
      2569 MEMB     20       POPC     O12      OSLP    -0.570000       15.9994           0
      2570 MEMB     20       POPC     O11      OSLP    -0.570000       15.9994           0
      2571 MEMB     20       POPC     C1       CTL2    -0.800000E-01   12.0110           0
      2572 MEMB     20       POPC     HA       HAL2     0.900000E-01   1.00800           0
      2573 MEMB     20       POPC     HB       HAL2     0.900000E-01   1.00800           0
      2574 MEMB     20       POPC     C2       CTL1     0.170000       12.0110           0
      2575 MEMB     20       POPC     HS       HAL1     0.900000E-01   1.00800           0
      2576 MEMB     20       POPC     O21      OSL     -0.490000       15.9994           0
      2577 MEMB     20       POPC     C21      CL       0.900000       12.0110           0
      2578 MEMB     20       POPC     O22      OBL     -0.630000       15.9994           0
      2579 MEMB     20       POPC     C22      CTL2    -0.220000       12.0110           0
      2580 MEMB     20       POPC     H2R      HAL2     0.900000E-01   1.00800           0
      2581 MEMB     20       POPC     H2S      HAL2     0.900000E-01   1.00800           0
      2582 MEMB     20       POPC     C3       CTL2     0.800000E-01   12.0110           0
      2583 MEMB     20       POPC     HX       HAL2     0.900000E-01   1.00800           0
      2584 MEMB     20       POPC     HY       HAL2     0.900000E-01   1.00800           0
      2585 MEMB     20       POPC     O31      OSL     -0.490000       15.9994           0
      2586 MEMB     20       POPC     C31      CL       0.900000       12.0110           0
      2587 MEMB     20       POPC     O32      OBL     -0.630000       15.9994           0
      2588 MEMB     20       POPC     C32      CTL2    -0.220000       12.0110           0
      2589 MEMB     20       POPC     H2X      HAL2     0.900000E-01   1.00800           0
      2590 MEMB     20       POPC     H2Y      HAL2     0.900000E-01   1.00800           0
      2591 MEMB     20       POPC     C23      CTL2    -0.180000       12.0110           0
      2592 MEMB     20       POPC     H3R      HAL2     0.900000E-01   1.00800           0
      2593 MEMB     20       POPC     H3S      HAL2     0.900000E-01   1.00800           0
      2594 MEMB     20       POPC     C24      CTL2    -0.180000       12.0110           0
      2595 MEMB     20       POPC     H4R      HAL2     0.900000E-01   1.00800           0
      2596 MEMB     20       POPC     H4S      HAL2     0.900000E-01   1.00800           0
      2597 MEMB     20       POPC     C25      CTL2    -0.180000       12.0110           0
      2598 MEMB     20       POPC     H5R      HAL2     0.900000E-01   1.00800           0
      2599 MEMB     20       POPC     H5S      HAL2     0.900000E-01   1.00800           0
      2600 MEMB     20       POPC     C26      CTL2    -0.180000       12.0110           0
      2601 MEMB     20       POPC     H6R      HAL2     0.900000E-01   1.00800           0
      2602 MEMB     20       POPC     H6S      HAL2     0.900000E-01   1.00800           0
      2603 MEMB     20       POPC     C27      CTL2    -0.180000       12.0110           0
      2604 MEMB     20       POPC     H7R      HAL2     0.900000E-01   1.00800           0
      2605 MEMB     20       POPC     H7S      HAL2     0.900000E-01   1.00800           0
      2606 MEMB     20       POPC     C28      CTL2    -0.180000       12.0110           0
      2607 MEMB     20       POPC     H8R      HAL2     0.900000E-01   1.00800           0
      2608 MEMB     20       POPC     H8S      HAL2     0.900000E-01   1.00800           0
      2609 MEMB     20       POPC     C29      CEL1    -0.150000       12.0110           0
      2610 MEMB     20       POPC     H91      HEL1     0.150000       1.00800           0
      2611 MEMB     20       POPC     C210     CEL1    -0.150000       12.0110           0
      2612 MEMB     20       POPC     H101     HEL1     0.150000       1.00800           0
      2613 MEMB     20       POPC     C211     CTL2    -0.180000       12.0110           0
      2614 MEMB     20       POPC     H11R     HAL2     0.900000E-01   1.00800           0
      2615 MEMB     20       POPC     H11S     HAL2     0.900000E-01   1.00800           0
      2616 MEMB     20       POPC     C212     CTL2    -0.180000       12.0110           0
      2617 MEMB     20       POPC     H12R     HAL2     0.900000E-01   1.00800           0
      2618 MEMB     20       POPC     H12S     HAL2     0.900000E-01   1.00800           0
      2619 MEMB     20       POPC     C213     CTL2    -0.180000       12.0110           0
      2620 MEMB     20       POPC     H13R     HAL2     0.900000E-01   1.00800           0
      2621 MEMB     20       POPC     H13S     HAL2     0.900000E-01   1.00800           0
      2622 MEMB     20       POPC     C214     CTL2    -0.180000       12.0110           0
      2623 MEMB     20       POPC     H14R     HAL2     0.900000E-01   1.00800           0
      2624 MEMB     20       POPC     H14S     HAL2     0.900000E-01   1.00800           0
      2625 MEMB     20       POPC     C215     CTL2    -0.180000       12.0110           0
      2626 MEMB     20       POPC     H15R     HAL2     0.900000E-01   1.00800           0
      2627 MEMB     20       POPC     H15S     HAL2     0.900000E-01   1.00800           0
      2628 MEMB     20       POPC     C216     CTL2    -0.180000       12.0110           0
      2629 MEMB     20       POPC     H16R     HAL2     0.900000E-01   1.00800           0
      2630 MEMB     20       POPC     H16S     HAL2     0.900000E-01   1.00800           0
      2631 MEMB     20       POPC     C217     CTL2    -0.180000       12.0110           0
      2632 MEMB     20       POPC     H17R     HAL2     0.900000E-01   1.00800           0
      2633 MEMB     20       POPC     H17S     HAL2     0.900000E-01   1.00800           0
      2634 MEMB     20       POPC     C218     CTL3    -0.270000       12.0110           0
      2635 MEMB     20       POPC     H18R     HAL3     0.900000E-01   1.00800           0
      2636 MEMB     20       POPC     H18S     HAL3     0.900000E-01   1.00800           0
      2637 MEMB     20       POPC     H18T     HAL3     0.900000E-01   1.00800           0
      2638 MEMB     20       POPC     C33      CTL2    -0.180000       12.0110           0
      2639 MEMB     20       POPC     H3X      HAL2     0.900000E-01   1.00800           0
      2640 MEMB     20       POPC     H3Y      HAL2     0.900000E-01   1.00800           0
      2641 MEMB     20       POPC     C34      CTL2    -0.180000       12.0110           0
      2642 MEMB     20       POPC     H4X      HAL2     0.900000E-01   1.00800           0
      2643 MEMB     20       POPC     H4Y      HAL2     0.900000E-01   1.00800           0
      2644 MEMB     20       POPC     C35      CTL2    -0.180000       12.0110           0
      2645 MEMB     20       POPC     H5X      HAL2     0.900000E-01   1.00800           0
      2646 MEMB     20       POPC     H5Y      HAL2     0.900000E-01   1.00800           0
      2647 MEMB     20       POPC     C36      CTL2    -0.180000       12.0110           0
      2648 MEMB     20       POPC     H6X      HAL2     0.900000E-01   1.00800           0
      2649 MEMB     20       POPC     H6Y      HAL2     0.900000E-01   1.00800           0
      2650 MEMB     20       POPC     C37      CTL2    -0.180000       12.0110           0
      2651 MEMB     20       POPC     H7X      HAL2     0.900000E-01   1.00800           0
      2652 MEMB     20       POPC     H7Y      HAL2     0.900000E-01   1.00800           0
      2653 MEMB     20       POPC     C38      CTL2    -0.180000       12.0110           0
      2654 MEMB     20       POPC     H8X      HAL2     0.900000E-01   1.00800           0
      2655 MEMB     20       POPC     H8Y      HAL2     0.900000E-01   1.00800           0
      2656 MEMB     20       POPC     C39      CTL2    -0.180000       12.0110           0
      2657 MEMB     20       POPC     H9X      HAL2     0.900000E-01   1.00800           0
      2658 MEMB     20       POPC     H9Y      HAL2     0.900000E-01   1.00800           0
      2659 MEMB     20       POPC     C310     CTL2    -0.180000       12.0110           0
      2660 MEMB     20       POPC     H10X     HAL2     0.900000E-01   1.00800           0
      2661 MEMB     20       POPC     H10Y     HAL2     0.900000E-01   1.00800           0
      2662 MEMB     20       POPC     C311     CTL2    -0.180000       12.0110           0
      2663 MEMB     20       POPC     H11X     HAL2     0.900000E-01   1.00800           0
      2664 MEMB     20       POPC     H11Y     HAL2     0.900000E-01   1.00800           0
      2665 MEMB     20       POPC     C312     CTL2    -0.180000       12.0110           0
      2666 MEMB     20       POPC     H12X     HAL2     0.900000E-01   1.00800           0
      2667 MEMB     20       POPC     H12Y     HAL2     0.900000E-01   1.00800           0
      2668 MEMB     20       POPC     C313     CTL2    -0.180000       12.0110           0
      2669 MEMB     20       POPC     H13X     HAL2     0.900000E-01   1.00800           0
      2670 MEMB     20       POPC     H13Y     HAL2     0.900000E-01   1.00800           0
      2671 MEMB     20       POPC     C314     CTL2    -0.180000       12.0110           0
      2672 MEMB     20       POPC     H14X     HAL2     0.900000E-01   1.00800           0
      2673 MEMB     20       POPC     H14Y     HAL2     0.900000E-01   1.00800           0
      2674 MEMB     20       POPC     C315     CTL2    -0.180000       12.0110           0
      2675 MEMB     20       POPC     H15X     HAL2     0.900000E-01   1.00800           0
      2676 MEMB     20       POPC     H15Y     HAL2     0.900000E-01   1.00800           0
      2677 MEMB     20       POPC     C316     CTL3    -0.270000       12.0110           0
      2678 MEMB     20       POPC     H16X     HAL3     0.900000E-01   1.00800           0
      2679 MEMB     20       POPC     H16Y     HAL3     0.900000E-01   1.00800           0
      2680 MEMB     20       POPC     H16Z     HAL3     0.900000E-01   1.00800           0
      2681 MEMB     21       POPC     N        NTL     -0.600000       14.0070           0
      2682 MEMB     21       POPC     C12      CTL2    -0.100000       12.0110           0
      2683 MEMB     21       POPC     H12A     HL       0.250000       1.00800           0
      2684 MEMB     21       POPC     H12B     HL       0.250000       1.00800           0
      2685 MEMB     21       POPC     C13      CTL5    -0.350000       12.0110           0
      2686 MEMB     21       POPC     H13A     HL       0.250000       1.00800           0
      2687 MEMB     21       POPC     H13B     HL       0.250000       1.00800           0
      2688 MEMB     21       POPC     H13C     HL       0.250000       1.00800           0
      2689 MEMB     21       POPC     C14      CTL5    -0.350000       12.0110           0
      2690 MEMB     21       POPC     H14A     HL       0.250000       1.00800           0
      2691 MEMB     21       POPC     H14B     HL       0.250000       1.00800           0
      2692 MEMB     21       POPC     H14C     HL       0.250000       1.00800           0
      2693 MEMB     21       POPC     C15      CTL5    -0.350000       12.0110           0
      2694 MEMB     21       POPC     H15A     HL       0.250000       1.00800           0
      2695 MEMB     21       POPC     H15B     HL       0.250000       1.00800           0
      2696 MEMB     21       POPC     H15C     HL       0.250000       1.00800           0
      2697 MEMB     21       POPC     C11      CTL2    -0.800000E-01   12.0110           0
      2698 MEMB     21       POPC     H11A     HAL2     0.900000E-01   1.00800           0
      2699 MEMB     21       POPC     H11B     HAL2     0.900000E-01   1.00800           0
      2700 MEMB     21       POPC     P        PL        1.50000       30.9740           0
      2701 MEMB     21       POPC     O13      O2L     -0.780000       15.9994           0
      2702 MEMB     21       POPC     O14      O2L     -0.780000       15.9994           0
      2703 MEMB     21       POPC     O12      OSLP    -0.570000       15.9994           0
      2704 MEMB     21       POPC     O11      OSLP    -0.570000       15.9994           0
      2705 MEMB     21       POPC     C1       CTL2    -0.800000E-01   12.0110           0
      2706 MEMB     21       POPC     HA       HAL2     0.900000E-01   1.00800           0
      2707 MEMB     21       POPC     HB       HAL2     0.900000E-01   1.00800           0
      2708 MEMB     21       POPC     C2       CTL1     0.170000       12.0110           0
      2709 MEMB     21       POPC     HS       HAL1     0.900000E-01   1.00800           0
      2710 MEMB     21       POPC     O21      OSL     -0.490000       15.9994           0
      2711 MEMB     21       POPC     C21      CL       0.900000       12.0110           0
      2712 MEMB     21       POPC     O22      OBL     -0.630000       15.9994           0
      2713 MEMB     21       POPC     C22      CTL2    -0.220000       12.0110           0
      2714 MEMB     21       POPC     H2R      HAL2     0.900000E-01   1.00800           0
      2715 MEMB     21       POPC     H2S      HAL2     0.900000E-01   1.00800           0
      2716 MEMB     21       POPC     C3       CTL2     0.800000E-01   12.0110           0
      2717 MEMB     21       POPC     HX       HAL2     0.900000E-01   1.00800           0
      2718 MEMB     21       POPC     HY       HAL2     0.900000E-01   1.00800           0
      2719 MEMB     21       POPC     O31      OSL     -0.490000       15.9994           0
      2720 MEMB     21       POPC     C31      CL       0.900000       12.0110           0
      2721 MEMB     21       POPC     O32      OBL     -0.630000       15.9994           0
      2722 MEMB     21       POPC     C32      CTL2    -0.220000       12.0110           0
      2723 MEMB     21       POPC     H2X      HAL2     0.900000E-01   1.00800           0
      2724 MEMB     21       POPC     H2Y      HAL2     0.900000E-01   1.00800           0
      2725 MEMB     21       POPC     C23      CTL2    -0.180000       12.0110           0
      2726 MEMB     21       POPC     H3R      HAL2     0.900000E-01   1.00800           0
      2727 MEMB     21       POPC     H3S      HAL2     0.900000E-01   1.00800           0
      2728 MEMB     21       POPC     C24      CTL2    -0.180000       12.0110           0
      2729 MEMB     21       POPC     H4R      HAL2     0.900000E-01   1.00800           0
      2730 MEMB     21       POPC     H4S      HAL2     0.900000E-01   1.00800           0
      2731 MEMB     21       POPC     C25      CTL2    -0.180000       12.0110           0
      2732 MEMB     21       POPC     H5R      HAL2     0.900000E-01   1.00800           0
      2733 MEMB     21       POPC     H5S      HAL2     0.900000E-01   1.00800           0
      2734 MEMB     21       POPC     C26      CTL2    -0.180000       12.0110           0
      2735 MEMB     21       POPC     H6R      HAL2     0.900000E-01   1.00800           0
      2736 MEMB     21       POPC     H6S      HAL2     0.900000E-01   1.00800           0
      2737 MEMB     21       POPC     C27      CTL2    -0.180000       12.0110           0
      2738 MEMB     21       POPC     H7R      HAL2     0.900000E-01   1.00800           0
      2739 MEMB     21       POPC     H7S      HAL2     0.900000E-01   1.00800           0
      2740 MEMB     21       POPC     C28      CTL2    -0.180000       12.0110           0
      2741 MEMB     21       POPC     H8R      HAL2     0.900000E-01   1.00800           0
      2742 MEMB     21       POPC     H8S      HAL2     0.900000E-01   1.00800           0
      2743 MEMB     21       POPC     C29      CEL1    -0.150000       12.0110           0
      2744 MEMB     21       POPC     H91      HEL1     0.150000       1.00800           0
      2745 MEMB     21       POPC     C210     CEL1    -0.150000       12.0110           0
      2746 MEMB     21       POPC     H101     HEL1     0.150000       1.00800           0
      2747 MEMB     21       POPC     C211     CTL2    -0.180000       12.0110           0
      2748 MEMB     21       POPC     H11R     HAL2     0.900000E-01   1.00800           0
      2749 MEMB     21       POPC     H11S     HAL2     0.900000E-01   1.00800           0
      2750 MEMB     21       POPC     C212     CTL2    -0.180000       12.0110           0
      2751 MEMB     21       POPC     H12R     HAL2     0.900000E-01   1.00800           0
      2752 MEMB     21       POPC     H12S     HAL2     0.900000E-01   1.00800           0
      2753 MEMB     21       POPC     C213     CTL2    -0.180000       12.0110           0
      2754 MEMB     21       POPC     H13R     HAL2     0.900000E-01   1.00800           0
      2755 MEMB     21       POPC     H13S     HAL2     0.900000E-01   1.00800           0
      2756 MEMB     21       POPC     C214     CTL2    -0.180000       12.0110           0
      2757 MEMB     21       POPC     H14R     HAL2     0.900000E-01   1.00800           0
      2758 MEMB     21       POPC     H14S     HAL2     0.900000E-01   1.00800           0
      2759 MEMB     21       POPC     C215     CTL2    -0.180000       12.0110           0
      2760 MEMB     21       POPC     H15R     HAL2     0.900000E-01   1.00800           0
      2761 MEMB     21       POPC     H15S     HAL2     0.900000E-01   1.00800           0
      2762 MEMB     21       POPC     C216     CTL2    -0.180000       12.0110           0
      2763 MEMB     21       POPC     H16R     HAL2     0.900000E-01   1.00800           0
      2764 MEMB     21       POPC     H16S     HAL2     0.900000E-01   1.00800           0
      2765 MEMB     21       POPC     C217     CTL2    -0.180000       12.0110           0
      2766 MEMB     21       POPC     H17R     HAL2     0.900000E-01   1.00800           0
      2767 MEMB     21       POPC     H17S     HAL2     0.900000E-01   1.00800           0
      2768 MEMB     21       POPC     C218     CTL3    -0.270000       12.0110           0
      2769 MEMB     21       POPC     H18R     HAL3     0.900000E-01   1.00800           0
      2770 MEMB     21       POPC     H18S     HAL3     0.900000E-01   1.00800           0
      2771 MEMB     21       POPC     H18T     HAL3     0.900000E-01   1.00800           0
      2772 MEMB     21       POPC     C33      CTL2    -0.180000       12.0110           0
      2773 MEMB     21       POPC     H3X      HAL2     0.900000E-01   1.00800           0
      2774 MEMB     21       POPC     H3Y      HAL2     0.900000E-01   1.00800           0
      2775 MEMB     21       POPC     C34      CTL2    -0.180000       12.0110           0
      2776 MEMB     21       POPC     H4X      HAL2     0.900000E-01   1.00800           0
      2777 MEMB     21       POPC     H4Y      HAL2     0.900000E-01   1.00800           0
      2778 MEMB     21       POPC     C35      CTL2    -0.180000       12.0110           0
      2779 MEMB     21       POPC     H5X      HAL2     0.900000E-01   1.00800           0
      2780 MEMB     21       POPC     H5Y      HAL2     0.900000E-01   1.00800           0
      2781 MEMB     21       POPC     C36      CTL2    -0.180000       12.0110           0
      2782 MEMB     21       POPC     H6X      HAL2     0.900000E-01   1.00800           0
      2783 MEMB     21       POPC     H6Y      HAL2     0.900000E-01   1.00800           0
      2784 MEMB     21       POPC     C37      CTL2    -0.180000       12.0110           0
      2785 MEMB     21       POPC     H7X      HAL2     0.900000E-01   1.00800           0
      2786 MEMB     21       POPC     H7Y      HAL2     0.900000E-01   1.00800           0
      2787 MEMB     21       POPC     C38      CTL2    -0.180000       12.0110           0
      2788 MEMB     21       POPC     H8X      HAL2     0.900000E-01   1.00800           0
      2789 MEMB     21       POPC     H8Y      HAL2     0.900000E-01   1.00800           0
      2790 MEMB     21       POPC     C39      CTL2    -0.180000       12.0110           0
      2791 MEMB     21       POPC     H9X      HAL2     0.900000E-01   1.00800           0
      2792 MEMB     21       POPC     H9Y      HAL2     0.900000E-01   1.00800           0
      2793 MEMB     21       POPC     C310     CTL2    -0.180000       12.0110           0
      2794 MEMB     21       POPC     H10X     HAL2     0.900000E-01   1.00800           0
      2795 MEMB     21       POPC     H10Y     HAL2     0.900000E-01   1.00800           0
      2796 MEMB     21       POPC     C311     CTL2    -0.180000       12.0110           0
      2797 MEMB     21       POPC     H11X     HAL2     0.900000E-01   1.00800           0
      2798 MEMB     21       POPC     H11Y     HAL2     0.900000E-01   1.00800           0
      2799 MEMB     21       POPC     C312     CTL2    -0.180000       12.0110           0
      2800 MEMB     21       POPC     H12X     HAL2     0.900000E-01   1.00800           0
      2801 MEMB     21       POPC     H12Y     HAL2     0.900000E-01   1.00800           0
      2802 MEMB     21       POPC     C313     CTL2    -0.180000       12.0110           0
      2803 MEMB     21       POPC     H13X     HAL2     0.900000E-01   1.00800           0
      2804 MEMB     21       POPC     H13Y     HAL2     0.900000E-01   1.00800           0
      2805 MEMB     21       POPC     C314     CTL2    -0.180000       12.0110           0
      2806 MEMB     21       POPC     H14X     HAL2     0.900000E-01   1.00800           0
      2807 MEMB     21       POPC     H14Y     HAL2     0.900000E-01   1.00800           0
      2808 MEMB     21       POPC     C315     CTL2    -0.180000       12.0110           0
      2809 MEMB     21       POPC     H15X     HAL2     0.900000E-01   1.00800           0
      2810 MEMB     21       POPC     H15Y     HAL2     0.900000E-01   1.00800           0
      2811 MEMB     21       POPC     C316     CTL3    -0.270000       12.0110           0
      2812 MEMB     21       POPC     H16X     HAL3     0.900000E-01   1.00800           0
      2813 MEMB     21       POPC     H16Y     HAL3     0.900000E-01   1.00800           0
      2814 MEMB     21       POPC     H16Z     HAL3     0.900000E-01   1.00800           0
      2815 MEMB     22       POPC     N        NTL     -0.600000       14.0070           0
      2816 MEMB     22       POPC     C12      CTL2    -0.100000       12.0110           0
      2817 MEMB     22       POPC     H12A     HL       0.250000       1.00800           0
      2818 MEMB     22       POPC     H12B     HL       0.250000       1.00800           0
      2819 MEMB     22       POPC     C13      CTL5    -0.350000       12.0110           0
      2820 MEMB     22       POPC     H13A     HL       0.250000       1.00800           0
      2821 MEMB     22       POPC     H13B     HL       0.250000       1.00800           0
      2822 MEMB     22       POPC     H13C     HL       0.250000       1.00800           0
      2823 MEMB     22       POPC     C14      CTL5    -0.350000       12.0110           0
      2824 MEMB     22       POPC     H14A     HL       0.250000       1.00800           0
      2825 MEMB     22       POPC     H14B     HL       0.250000       1.00800           0
      2826 MEMB     22       POPC     H14C     HL       0.250000       1.00800           0
      2827 MEMB     22       POPC     C15      CTL5    -0.350000       12.0110           0
      2828 MEMB     22       POPC     H15A     HL       0.250000       1.00800           0
      2829 MEMB     22       POPC     H15B     HL       0.250000       1.00800           0
      2830 MEMB     22       POPC     H15C     HL       0.250000       1.00800           0
      2831 MEMB     22       POPC     C11      CTL2    -0.800000E-01   12.0110           0
      2832 MEMB     22       POPC     H11A     HAL2     0.900000E-01   1.00800           0
      2833 MEMB     22       POPC     H11B     HAL2     0.900000E-01   1.00800           0
      2834 MEMB     22       POPC     P        PL        1.50000       30.9740           0
      2835 MEMB     22       POPC     O13      O2L     -0.780000       15.9994           0
      2836 MEMB     22       POPC     O14      O2L     -0.780000       15.9994           0
      2837 MEMB     22       POPC     O12      OSLP    -0.570000       15.9994           0
      2838 MEMB     22       POPC     O11      OSLP    -0.570000       15.9994           0
      2839 MEMB     22       POPC     C1       CTL2    -0.800000E-01   12.0110           0
      2840 MEMB     22       POPC     HA       HAL2     0.900000E-01   1.00800           0
      2841 MEMB     22       POPC     HB       HAL2     0.900000E-01   1.00800           0
      2842 MEMB     22       POPC     C2       CTL1     0.170000       12.0110           0
      2843 MEMB     22       POPC     HS       HAL1     0.900000E-01   1.00800           0
      2844 MEMB     22       POPC     O21      OSL     -0.490000       15.9994           0
      2845 MEMB     22       POPC     C21      CL       0.900000       12.0110           0
      2846 MEMB     22       POPC     O22      OBL     -0.630000       15.9994           0
      2847 MEMB     22       POPC     C22      CTL2    -0.220000       12.0110           0
      2848 MEMB     22       POPC     H2R      HAL2     0.900000E-01   1.00800           0
      2849 MEMB     22       POPC     H2S      HAL2     0.900000E-01   1.00800           0
      2850 MEMB     22       POPC     C3       CTL2     0.800000E-01   12.0110           0
      2851 MEMB     22       POPC     HX       HAL2     0.900000E-01   1.00800           0
      2852 MEMB     22       POPC     HY       HAL2     0.900000E-01   1.00800           0
      2853 MEMB     22       POPC     O31      OSL     -0.490000       15.9994           0
      2854 MEMB     22       POPC     C31      CL       0.900000       12.0110           0
      2855 MEMB     22       POPC     O32      OBL     -0.630000       15.9994           0
      2856 MEMB     22       POPC     C32      CTL2    -0.220000       12.0110           0
      2857 MEMB     22       POPC     H2X      HAL2     0.900000E-01   1.00800           0
      2858 MEMB     22       POPC     H2Y      HAL2     0.900000E-01   1.00800           0
      2859 MEMB     22       POPC     C23      CTL2    -0.180000       12.0110           0
      2860 MEMB     22       POPC     H3R      HAL2     0.900000E-01   1.00800           0
      2861 MEMB     22       POPC     H3S      HAL2     0.900000E-01   1.00800           0
      2862 MEMB     22       POPC     C24      CTL2    -0.180000       12.0110           0
      2863 MEMB     22       POPC     H4R      HAL2     0.900000E-01   1.00800           0
      2864 MEMB     22       POPC     H4S      HAL2     0.900000E-01   1.00800           0
      2865 MEMB     22       POPC     C25      CTL2    -0.180000       12.0110           0
      2866 MEMB     22       POPC     H5R      HAL2     0.900000E-01   1.00800           0
      2867 MEMB     22       POPC     H5S      HAL2     0.900000E-01   1.00800           0
      2868 MEMB     22       POPC     C26      CTL2    -0.180000       12.0110           0
      2869 MEMB     22       POPC     H6R      HAL2     0.900000E-01   1.00800           0
      2870 MEMB     22       POPC     H6S      HAL2     0.900000E-01   1.00800           0
      2871 MEMB     22       POPC     C27      CTL2    -0.180000       12.0110           0
      2872 MEMB     22       POPC     H7R      HAL2     0.900000E-01   1.00800           0
      2873 MEMB     22       POPC     H7S      HAL2     0.900000E-01   1.00800           0
      2874 MEMB     22       POPC     C28      CTL2    -0.180000       12.0110           0
      2875 MEMB     22       POPC     H8R      HAL2     0.900000E-01   1.00800           0
      2876 MEMB     22       POPC     H8S      HAL2     0.900000E-01   1.00800           0
      2877 MEMB     22       POPC     C29      CEL1    -0.150000       12.0110           0
      2878 MEMB     22       POPC     H91      HEL1     0.150000       1.00800           0
      2879 MEMB     22       POPC     C210     CEL1    -0.150000       12.0110           0
      2880 MEMB     22       POPC     H101     HEL1     0.150000       1.00800           0
      2881 MEMB     22       POPC     C211     CTL2    -0.180000       12.0110           0
      2882 MEMB     22       POPC     H11R     HAL2     0.900000E-01   1.00800           0
      2883 MEMB     22       POPC     H11S     HAL2     0.900000E-01   1.00800           0
      2884 MEMB     22       POPC     C212     CTL2    -0.180000       12.0110           0
      2885 MEMB     22       POPC     H12R     HAL2     0.900000E-01   1.00800           0
      2886 MEMB     22       POPC     H12S     HAL2     0.900000E-01   1.00800           0
      2887 MEMB     22       POPC     C213     CTL2    -0.180000       12.0110           0
      2888 MEMB     22       POPC     H13R     HAL2     0.900000E-01   1.00800           0
      2889 MEMB     22       POPC     H13S     HAL2     0.900000E-01   1.00800           0
      2890 MEMB     22       POPC     C214     CTL2    -0.180000       12.0110           0
      2891 MEMB     22       POPC     H14R     HAL2     0.900000E-01   1.00800           0
      2892 MEMB     22       POPC     H14S     HAL2     0.900000E-01   1.00800           0
      2893 MEMB     22       POPC     C215     CTL2    -0.180000       12.0110           0
      2894 MEMB     22       POPC     H15R     HAL2     0.900000E-01   1.00800           0
      2895 MEMB     22       POPC     H15S     HAL2     0.900000E-01   1.00800           0
      2896 MEMB     22       POPC     C216     CTL2    -0.180000       12.0110           0
      2897 MEMB     22       POPC     H16R     HAL2     0.900000E-01   1.00800           0
      2898 MEMB     22       POPC     H16S     HAL2     0.900000E-01   1.00800           0
      2899 MEMB     22       POPC     C217     CTL2    -0.180000       12.0110           0
      2900 MEMB     22       POPC     H17R     HAL2     0.900000E-01   1.00800           0
      2901 MEMB     22       POPC     H17S     HAL2     0.900000E-01   1.00800           0
      2902 MEMB     22       POPC     C218     CTL3    -0.270000       12.0110           0
      2903 MEMB     22       POPC     H18R     HAL3     0.900000E-01   1.00800           0
      2904 MEMB     22       POPC     H18S     HAL3     0.900000E-01   1.00800           0
      2905 MEMB     22       POPC     H18T     HAL3     0.900000E-01   1.00800           0
      2906 MEMB     22       POPC     C33      CTL2    -0.180000       12.0110           0
      2907 MEMB     22       POPC     H3X      HAL2     0.900000E-01   1.00800           0
      2908 MEMB     22       POPC     H3Y      HAL2     0.900000E-01   1.00800           0
      2909 MEMB     22       POPC     C34      CTL2    -0.180000       12.0110           0
      2910 MEMB     22       POPC     H4X      HAL2     0.900000E-01   1.00800           0
      2911 MEMB     22       POPC     H4Y      HAL2     0.900000E-01   1.00800           0
      2912 MEMB     22       POPC     C35      CTL2    -0.180000       12.0110           0
      2913 MEMB     22       POPC     H5X      HAL2     0.900000E-01   1.00800           0
      2914 MEMB     22       POPC     H5Y      HAL2     0.900000E-01   1.00800           0
      2915 MEMB     22       POPC     C36      CTL2    -0.180000       12.0110           0
      2916 MEMB     22       POPC     H6X      HAL2     0.900000E-01   1.00800           0
      2917 MEMB     22       POPC     H6Y      HAL2     0.900000E-01   1.00800           0
      2918 MEMB     22       POPC     C37      CTL2    -0.180000       12.0110           0
      2919 MEMB     22       POPC     H7X      HAL2     0.900000E-01   1.00800           0
      2920 MEMB     22       POPC     H7Y      HAL2     0.900000E-01   1.00800           0
      2921 MEMB     22       POPC     C38      CTL2    -0.180000       12.0110           0
      2922 MEMB     22       POPC     H8X      HAL2     0.900000E-01   1.00800           0
      2923 MEMB     22       POPC     H8Y      HAL2     0.900000E-01   1.00800           0
      2924 MEMB     22       POPC     C39      CTL2    -0.180000       12.0110           0
      2925 MEMB     22       POPC     H9X      HAL2     0.900000E-01   1.00800           0
      2926 MEMB     22       POPC     H9Y      HAL2     0.900000E-01   1.00800           0
      2927 MEMB     22       POPC     C310     CTL2    -0.180000       12.0110           0
      2928 MEMB     22       POPC     H10X     HAL2     0.900000E-01   1.00800           0
      2929 MEMB     22       POPC     H10Y     HAL2     0.900000E-01   1.00800           0
      2930 MEMB     22       POPC     C311     CTL2    -0.180000       12.0110           0
      2931 MEMB     22       POPC     H11X     HAL2     0.900000E-01   1.00800           0
      2932 MEMB     22       POPC     H11Y     HAL2     0.900000E-01   1.00800           0
      2933 MEMB     22       POPC     C312     CTL2    -0.180000       12.0110           0
      2934 MEMB     22       POPC     H12X     HAL2     0.900000E-01   1.00800           0
      2935 MEMB     22       POPC     H12Y     HAL2     0.900000E-01   1.00800           0
      2936 MEMB     22       POPC     C313     CTL2    -0.180000       12.0110           0
      2937 MEMB     22       POPC     H13X     HAL2     0.900000E-01   1.00800           0
      2938 MEMB     22       POPC     H13Y     HAL2     0.900000E-01   1.00800           0
      2939 MEMB     22       POPC     C314     CTL2    -0.180000       12.0110           0
      2940 MEMB     22       POPC     H14X     HAL2     0.900000E-01   1.00800           0
      2941 MEMB     22       POPC     H14Y     HAL2     0.900000E-01   1.00800           0
      2942 MEMB     22       POPC     C315     CTL2    -0.180000       12.0110           0
      2943 MEMB     22       POPC     H15X     HAL2     0.900000E-01   1.00800           0
      2944 MEMB     22       POPC     H15Y     HAL2     0.900000E-01   1.00800           0
      2945 MEMB     22       POPC     C316     CTL3    -0.270000       12.0110           0
      2946 MEMB     22       POPC     H16X     HAL3     0.900000E-01   1.00800           0
      2947 MEMB     22       POPC     H16Y     HAL3     0.900000E-01   1.00800           0
      2948 MEMB     22       POPC     H16Z     HAL3     0.900000E-01   1.00800           0
      2949 MEMB     23       POPC     N        NTL     -0.600000       14.0070           0
      2950 MEMB     23       POPC     C12      CTL2    -0.100000       12.0110           0
      2951 MEMB     23       POPC     H12A     HL       0.250000       1.00800           0
      2952 MEMB     23       POPC     H12B     HL       0.250000       1.00800           0
      2953 MEMB     23       POPC     C13      CTL5    -0.350000       12.0110           0
      2954 MEMB     23       POPC     H13A     HL       0.250000       1.00800           0
      2955 MEMB     23       POPC     H13B     HL       0.250000       1.00800           0
      2956 MEMB     23       POPC     H13C     HL       0.250000       1.00800           0
      2957 MEMB     23       POPC     C14      CTL5    -0.350000       12.0110           0
      2958 MEMB     23       POPC     H14A     HL       0.250000       1.00800           0
      2959 MEMB     23       POPC     H14B     HL       0.250000       1.00800           0
      2960 MEMB     23       POPC     H14C     HL       0.250000       1.00800           0
      2961 MEMB     23       POPC     C15      CTL5    -0.350000       12.0110           0
      2962 MEMB     23       POPC     H15A     HL       0.250000       1.00800           0
      2963 MEMB     23       POPC     H15B     HL       0.250000       1.00800           0
      2964 MEMB     23       POPC     H15C     HL       0.250000       1.00800           0
      2965 MEMB     23       POPC     C11      CTL2    -0.800000E-01   12.0110           0
      2966 MEMB     23       POPC     H11A     HAL2     0.900000E-01   1.00800           0
      2967 MEMB     23       POPC     H11B     HAL2     0.900000E-01   1.00800           0
      2968 MEMB     23       POPC     P        PL        1.50000       30.9740           0
      2969 MEMB     23       POPC     O13      O2L     -0.780000       15.9994           0
      2970 MEMB     23       POPC     O14      O2L     -0.780000       15.9994           0
      2971 MEMB     23       POPC     O12      OSLP    -0.570000       15.9994           0
      2972 MEMB     23       POPC     O11      OSLP    -0.570000       15.9994           0
      2973 MEMB     23       POPC     C1       CTL2    -0.800000E-01   12.0110           0
      2974 MEMB     23       POPC     HA       HAL2     0.900000E-01   1.00800           0
      2975 MEMB     23       POPC     HB       HAL2     0.900000E-01   1.00800           0
      2976 MEMB     23       POPC     C2       CTL1     0.170000       12.0110           0
      2977 MEMB     23       POPC     HS       HAL1     0.900000E-01   1.00800           0
      2978 MEMB     23       POPC     O21      OSL     -0.490000       15.9994           0
      2979 MEMB     23       POPC     C21      CL       0.900000       12.0110           0
      2980 MEMB     23       POPC     O22      OBL     -0.630000       15.9994           0
      2981 MEMB     23       POPC     C22      CTL2    -0.220000       12.0110           0
      2982 MEMB     23       POPC     H2R      HAL2     0.900000E-01   1.00800           0
      2983 MEMB     23       POPC     H2S      HAL2     0.900000E-01   1.00800           0
      2984 MEMB     23       POPC     C3       CTL2     0.800000E-01   12.0110           0
      2985 MEMB     23       POPC     HX       HAL2     0.900000E-01   1.00800           0
      2986 MEMB     23       POPC     HY       HAL2     0.900000E-01   1.00800           0
      2987 MEMB     23       POPC     O31      OSL     -0.490000       15.9994           0
      2988 MEMB     23       POPC     C31      CL       0.900000       12.0110           0
      2989 MEMB     23       POPC     O32      OBL     -0.630000       15.9994           0
      2990 MEMB     23       POPC     C32      CTL2    -0.220000       12.0110           0
      2991 MEMB     23       POPC     H2X      HAL2     0.900000E-01   1.00800           0
      2992 MEMB     23       POPC     H2Y      HAL2     0.900000E-01   1.00800           0
      2993 MEMB     23       POPC     C23      CTL2    -0.180000       12.0110           0
      2994 MEMB     23       POPC     H3R      HAL2     0.900000E-01   1.00800           0
      2995 MEMB     23       POPC     H3S      HAL2     0.900000E-01   1.00800           0
      2996 MEMB     23       POPC     C24      CTL2    -0.180000       12.0110           0
      2997 MEMB     23       POPC     H4R      HAL2     0.900000E-01   1.00800           0
      2998 MEMB     23       POPC     H4S      HAL2     0.900000E-01   1.00800           0
      2999 MEMB     23       POPC     C25      CTL2    -0.180000       12.0110           0
      3000 MEMB     23       POPC     H5R      HAL2     0.900000E-01   1.00800           0
      3001 MEMB     23       POPC     H5S      HAL2     0.900000E-01   1.00800           0
      3002 MEMB     23       POPC     C26      CTL2    -0.180000       12.0110           0
      3003 MEMB     23       POPC     H6R      HAL2     0.900000E-01   1.00800           0
      3004 MEMB     23       POPC     H6S      HAL2     0.900000E-01   1.00800           0
      3005 MEMB     23       POPC     C27      CTL2    -0.180000       12.0110           0
      3006 MEMB     23       POPC     H7R      HAL2     0.900000E-01   1.00800           0
      3007 MEMB     23       POPC     H7S      HAL2     0.900000E-01   1.00800           0
      3008 MEMB     23       POPC     C28      CTL2    -0.180000       12.0110           0
      3009 MEMB     23       POPC     H8R      HAL2     0.900000E-01   1.00800           0
      3010 MEMB     23       POPC     H8S      HAL2     0.900000E-01   1.00800           0
      3011 MEMB     23       POPC     C29      CEL1    -0.150000       12.0110           0
      3012 MEMB     23       POPC     H91      HEL1     0.150000       1.00800           0
      3013 MEMB     23       POPC     C210     CEL1    -0.150000       12.0110           0
      3014 MEMB     23       POPC     H101     HEL1     0.150000       1.00800           0
      3015 MEMB     23       POPC     C211     CTL2    -0.180000       12.0110           0
      3016 MEMB     23       POPC     H11R     HAL2     0.900000E-01   1.00800           0
      3017 MEMB     23       POPC     H11S     HAL2     0.900000E-01   1.00800           0
      3018 MEMB     23       POPC     C212     CTL2    -0.180000       12.0110           0
      3019 MEMB     23       POPC     H12R     HAL2     0.900000E-01   1.00800           0
      3020 MEMB     23       POPC     H12S     HAL2     0.900000E-01   1.00800           0
      3021 MEMB     23       POPC     C213     CTL2    -0.180000       12.0110           0
      3022 MEMB     23       POPC     H13R     HAL2     0.900000E-01   1.00800           0
      3023 MEMB     23       POPC     H13S     HAL2     0.900000E-01   1.00800           0
      3024 MEMB     23       POPC     C214     CTL2    -0.180000       12.0110           0
      3025 MEMB     23       POPC     H14R     HAL2     0.900000E-01   1.00800           0
      3026 MEMB     23       POPC     H14S     HAL2     0.900000E-01   1.00800           0
      3027 MEMB     23       POPC     C215     CTL2    -0.180000       12.0110           0
      3028 MEMB     23       POPC     H15R     HAL2     0.900000E-01   1.00800           0
      3029 MEMB     23       POPC     H15S     HAL2     0.900000E-01   1.00800           0
      3030 MEMB     23       POPC     C216     CTL2    -0.180000       12.0110           0
      3031 MEMB     23       POPC     H16R     HAL2     0.900000E-01   1.00800           0
      3032 MEMB     23       POPC     H16S     HAL2     0.900000E-01   1.00800           0
      3033 MEMB     23       POPC     C217     CTL2    -0.180000       12.0110           0
      3034 MEMB     23       POPC     H17R     HAL2     0.900000E-01   1.00800           0
      3035 MEMB     23       POPC     H17S     HAL2     0.900000E-01   1.00800           0
      3036 MEMB     23       POPC     C218     CTL3    -0.270000       12.0110           0
      3037 MEMB     23       POPC     H18R     HAL3     0.900000E-01   1.00800           0
      3038 MEMB     23       POPC     H18S     HAL3     0.900000E-01   1.00800           0
      3039 MEMB     23       POPC     H18T     HAL3     0.900000E-01   1.00800           0
      3040 MEMB     23       POPC     C33      CTL2    -0.180000       12.0110           0
      3041 MEMB     23       POPC     H3X      HAL2     0.900000E-01   1.00800           0
      3042 MEMB     23       POPC     H3Y      HAL2     0.900000E-01   1.00800           0
      3043 MEMB     23       POPC     C34      CTL2    -0.180000       12.0110           0
      3044 MEMB     23       POPC     H4X      HAL2     0.900000E-01   1.00800           0
      3045 MEMB     23       POPC     H4Y      HAL2     0.900000E-01   1.00800           0
      3046 MEMB     23       POPC     C35      CTL2    -0.180000       12.0110           0
      3047 MEMB     23       POPC     H5X      HAL2     0.900000E-01   1.00800           0
      3048 MEMB     23       POPC     H5Y      HAL2     0.900000E-01   1.00800           0
      3049 MEMB     23       POPC     C36      CTL2    -0.180000       12.0110           0
      3050 MEMB     23       POPC     H6X      HAL2     0.900000E-01   1.00800           0
      3051 MEMB     23       POPC     H6Y      HAL2     0.900000E-01   1.00800           0
      3052 MEMB     23       POPC     C37      CTL2    -0.180000       12.0110           0
      3053 MEMB     23       POPC     H7X      HAL2     0.900000E-01   1.00800           0
      3054 MEMB     23       POPC     H7Y      HAL2     0.900000E-01   1.00800           0
      3055 MEMB     23       POPC     C38      CTL2    -0.180000       12.0110           0
      3056 MEMB     23       POPC     H8X      HAL2     0.900000E-01   1.00800           0
      3057 MEMB     23       POPC     H8Y      HAL2     0.900000E-01   1.00800           0
      3058 MEMB     23       POPC     C39      CTL2    -0.180000       12.0110           0
      3059 MEMB     23       POPC     H9X      HAL2     0.900000E-01   1.00800           0
      3060 MEMB     23       POPC     H9Y      HAL2     0.900000E-01   1.00800           0
      3061 MEMB     23       POPC     C310     CTL2    -0.180000       12.0110           0
      3062 MEMB     23       POPC     H10X     HAL2     0.900000E-01   1.00800           0
      3063 MEMB     23       POPC     H10Y     HAL2     0.900000E-01   1.00800           0
      3064 MEMB     23       POPC     C311     CTL2    -0.180000       12.0110           0
      3065 MEMB     23       POPC     H11X     HAL2     0.900000E-01   1.00800           0
      3066 MEMB     23       POPC     H11Y     HAL2     0.900000E-01   1.00800           0
      3067 MEMB     23       POPC     C312     CTL2    -0.180000       12.0110           0
      3068 MEMB     23       POPC     H12X     HAL2     0.900000E-01   1.00800           0
      3069 MEMB     23       POPC     H12Y     HAL2     0.900000E-01   1.00800           0
      3070 MEMB     23       POPC     C313     CTL2    -0.180000       12.0110           0
      3071 MEMB     23       POPC     H13X     HAL2     0.900000E-01   1.00800           0
      3072 MEMB     23       POPC     H13Y     HAL2     0.900000E-01   1.00800           0
      3073 MEMB     23       POPC     C314     CTL2    -0.180000       12.0110           0
      3074 MEMB     23       POPC     H14X     HAL2     0.900000E-01   1.00800           0
      3075 MEMB     23       POPC     H14Y     HAL2     0.900000E-01   1.00800           0
      3076 MEMB     23       POPC     C315     CTL2    -0.180000       12.0110           0
      3077 MEMB     23       POPC     H15X     HAL2     0.900000E-01   1.00800           0
      3078 MEMB     23       POPC     H15Y     HAL2     0.900000E-01   1.00800           0
      3079 MEMB     23       POPC     C316     CTL3    -0.270000       12.0110           0
      3080 MEMB     23       POPC     H16X     HAL3     0.900000E-01   1.00800           0
      3081 MEMB     23       POPC     H16Y     HAL3     0.900000E-01   1.00800           0
      3082 MEMB     23       POPC     H16Z     HAL3     0.900000E-01   1.00800           0
      3083 MEMB     24       POPC     N        NTL     -0.600000       14.0070           0
      3084 MEMB     24       POPC     C12      CTL2    -0.100000       12.0110           0
      3085 MEMB     24       POPC     H12A     HL       0.250000       1.00800           0
      3086 MEMB     24       POPC     H12B     HL       0.250000       1.00800           0
      3087 MEMB     24       POPC     C13      CTL5    -0.350000       12.0110           0
      3088 MEMB     24       POPC     H13A     HL       0.250000       1.00800           0
      3089 MEMB     24       POPC     H13B     HL       0.250000       1.00800           0
      3090 MEMB     24       POPC     H13C     HL       0.250000       1.00800           0
      3091 MEMB     24       POPC     C14      CTL5    -0.350000       12.0110           0
      3092 MEMB     24       POPC     H14A     HL       0.250000       1.00800           0
      3093 MEMB     24       POPC     H14B     HL       0.250000       1.00800           0
      3094 MEMB     24       POPC     H14C     HL       0.250000       1.00800           0
      3095 MEMB     24       POPC     C15      CTL5    -0.350000       12.0110           0
      3096 MEMB     24       POPC     H15A     HL       0.250000       1.00800           0
      3097 MEMB     24       POPC     H15B     HL       0.250000       1.00800           0
      3098 MEMB     24       POPC     H15C     HL       0.250000       1.00800           0
      3099 MEMB     24       POPC     C11      CTL2    -0.800000E-01   12.0110           0
      3100 MEMB     24       POPC     H11A     HAL2     0.900000E-01   1.00800           0
      3101 MEMB     24       POPC     H11B     HAL2     0.900000E-01   1.00800           0
      3102 MEMB     24       POPC     P        PL        1.50000       30.9740           0
      3103 MEMB     24       POPC     O13      O2L     -0.780000       15.9994           0
      3104 MEMB     24       POPC     O14      O2L     -0.780000       15.9994           0
      3105 MEMB     24       POPC     O12      OSLP    -0.570000       15.9994           0
      3106 MEMB     24       POPC     O11      OSLP    -0.570000       15.9994           0
      3107 MEMB     24       POPC     C1       CTL2    -0.800000E-01   12.0110           0
      3108 MEMB     24       POPC     HA       HAL2     0.900000E-01   1.00800           0
      3109 MEMB     24       POPC     HB       HAL2     0.900000E-01   1.00800           0
      3110 MEMB     24       POPC     C2       CTL1     0.170000       12.0110           0
      3111 MEMB     24       POPC     HS       HAL1     0.900000E-01   1.00800           0
      3112 MEMB     24       POPC     O21      OSL     -0.490000       15.9994           0
      3113 MEMB     24       POPC     C21      CL       0.900000       12.0110           0
      3114 MEMB     24       POPC     O22      OBL     -0.630000       15.9994           0
      3115 MEMB     24       POPC     C22      CTL2    -0.220000       12.0110           0
      3116 MEMB     24       POPC     H2R      HAL2     0.900000E-01   1.00800           0
      3117 MEMB     24       POPC     H2S      HAL2     0.900000E-01   1.00800           0
      3118 MEMB     24       POPC     C3       CTL2     0.800000E-01   12.0110           0
      3119 MEMB     24       POPC     HX       HAL2     0.900000E-01   1.00800           0
      3120 MEMB     24       POPC     HY       HAL2     0.900000E-01   1.00800           0
      3121 MEMB     24       POPC     O31      OSL     -0.490000       15.9994           0
      3122 MEMB     24       POPC     C31      CL       0.900000       12.0110           0
      3123 MEMB     24       POPC     O32      OBL     -0.630000       15.9994           0
      3124 MEMB     24       POPC     C32      CTL2    -0.220000       12.0110           0
      3125 MEMB     24       POPC     H2X      HAL2     0.900000E-01   1.00800           0
      3126 MEMB     24       POPC     H2Y      HAL2     0.900000E-01   1.00800           0
      3127 MEMB     24       POPC     C23      CTL2    -0.180000       12.0110           0
      3128 MEMB     24       POPC     H3R      HAL2     0.900000E-01   1.00800           0
      3129 MEMB     24       POPC     H3S      HAL2     0.900000E-01   1.00800           0
      3130 MEMB     24       POPC     C24      CTL2    -0.180000       12.0110           0
      3131 MEMB     24       POPC     H4R      HAL2     0.900000E-01   1.00800           0
      3132 MEMB     24       POPC     H4S      HAL2     0.900000E-01   1.00800           0
      3133 MEMB     24       POPC     C25      CTL2    -0.180000       12.0110           0
      3134 MEMB     24       POPC     H5R      HAL2     0.900000E-01   1.00800           0
      3135 MEMB     24       POPC     H5S      HAL2     0.900000E-01   1.00800           0
      3136 MEMB     24       POPC     C26      CTL2    -0.180000       12.0110           0
      3137 MEMB     24       POPC     H6R      HAL2     0.900000E-01   1.00800           0
      3138 MEMB     24       POPC     H6S      HAL2     0.900000E-01   1.00800           0
      3139 MEMB     24       POPC     C27      CTL2    -0.180000       12.0110           0
      3140 MEMB     24       POPC     H7R      HAL2     0.900000E-01   1.00800           0
      3141 MEMB     24       POPC     H7S      HAL2     0.900000E-01   1.00800           0
      3142 MEMB     24       POPC     C28      CTL2    -0.180000       12.0110           0
      3143 MEMB     24       POPC     H8R      HAL2     0.900000E-01   1.00800           0
      3144 MEMB     24       POPC     H8S      HAL2     0.900000E-01   1.00800           0
      3145 MEMB     24       POPC     C29      CEL1    -0.150000       12.0110           0
      3146 MEMB     24       POPC     H91      HEL1     0.150000       1.00800           0
      3147 MEMB     24       POPC     C210     CEL1    -0.150000       12.0110           0
      3148 MEMB     24       POPC     H101     HEL1     0.150000       1.00800           0
      3149 MEMB     24       POPC     C211     CTL2    -0.180000       12.0110           0
      3150 MEMB     24       POPC     H11R     HAL2     0.900000E-01   1.00800           0
      3151 MEMB     24       POPC     H11S     HAL2     0.900000E-01   1.00800           0
      3152 MEMB     24       POPC     C212     CTL2    -0.180000       12.0110           0
      3153 MEMB     24       POPC     H12R     HAL2     0.900000E-01   1.00800           0
      3154 MEMB     24       POPC     H12S     HAL2     0.900000E-01   1.00800           0
      3155 MEMB     24       POPC     C213     CTL2    -0.180000       12.0110           0
      3156 MEMB     24       POPC     H13R     HAL2     0.900000E-01   1.00800           0
      3157 MEMB     24       POPC     H13S     HAL2     0.900000E-01   1.00800           0
      3158 MEMB     24       POPC     C214     CTL2    -0.180000       12.0110           0
      3159 MEMB     24       POPC     H14R     HAL2     0.900000E-01   1.00800           0
      3160 MEMB     24       POPC     H14S     HAL2     0.900000E-01   1.00800           0
      3161 MEMB     24       POPC     C215     CTL2    -0.180000       12.0110           0
      3162 MEMB     24       POPC     H15R     HAL2     0.900000E-01   1.00800           0
      3163 MEMB     24       POPC     H15S     HAL2     0.900000E-01   1.00800           0
      3164 MEMB     24       POPC     C216     CTL2    -0.180000       12.0110           0
      3165 MEMB     24       POPC     H16R     HAL2     0.900000E-01   1.00800           0
      3166 MEMB     24       POPC     H16S     HAL2     0.900000E-01   1.00800           0
      3167 MEMB     24       POPC     C217     CTL2    -0.180000       12.0110           0
      3168 MEMB     24       POPC     H17R     HAL2     0.900000E-01   1.00800           0
      3169 MEMB     24       POPC     H17S     HAL2     0.900000E-01   1.00800           0
      3170 MEMB     24       POPC     C218     CTL3    -0.270000       12.0110           0
      3171 MEMB     24       POPC     H18R     HAL3     0.900000E-01   1.00800           0
      3172 MEMB     24       POPC     H18S     HAL3     0.900000E-01   1.00800           0
      3173 MEMB     24       POPC     H18T     HAL3     0.900000E-01   1.00800           0
      3174 MEMB     24       POPC     C33      CTL2    -0.180000       12.0110           0
      3175 MEMB     24       POPC     H3X      HAL2     0.900000E-01   1.00800           0
      3176 MEMB     24       POPC     H3Y      HAL2     0.900000E-01   1.00800           0
      3177 MEMB     24       POPC     C34      CTL2    -0.180000       12.0110           0
      3178 MEMB     24       POPC     H4X      HAL2     0.900000E-01   1.00800           0
      3179 MEMB     24       POPC     H4Y      HAL2     0.900000E-01   1.00800           0
      3180 MEMB     24       POPC     C35      CTL2    -0.180000       12.0110           0
      3181 MEMB     24       POPC     H5X      HAL2     0.900000E-01   1.00800           0
      3182 MEMB     24       POPC     H5Y      HAL2     0.900000E-01   1.00800           0
      3183 MEMB     24       POPC     C36      CTL2    -0.180000       12.0110           0
      3184 MEMB     24       POPC     H6X      HAL2     0.900000E-01   1.00800           0
      3185 MEMB     24       POPC     H6Y      HAL2     0.900000E-01   1.00800           0
      3186 MEMB     24       POPC     C37      CTL2    -0.180000       12.0110           0
      3187 MEMB     24       POPC     H7X      HAL2     0.900000E-01   1.00800           0
      3188 MEMB     24       POPC     H7Y      HAL2     0.900000E-01   1.00800           0
      3189 MEMB     24       POPC     C38      CTL2    -0.180000       12.0110           0
      3190 MEMB     24       POPC     H8X      HAL2     0.900000E-01   1.00800           0
      3191 MEMB     24       POPC     H8Y      HAL2     0.900000E-01   1.00800           0
      3192 MEMB     24       POPC     C39      CTL2    -0.180000       12.0110           0
      3193 MEMB     24       POPC     H9X      HAL2     0.900000E-01   1.00800           0
      3194 MEMB     24       POPC     H9Y      HAL2     0.900000E-01   1.00800           0
      3195 MEMB     24       POPC     C310     CTL2    -0.180000       12.0110           0
      3196 MEMB     24       POPC     H10X     HAL2     0.900000E-01   1.00800           0
      3197 MEMB     24       POPC     H10Y     HAL2     0.900000E-01   1.00800           0
      3198 MEMB     24       POPC     C311     CTL2    -0.180000       12.0110           0
      3199 MEMB     24       POPC     H11X     HAL2     0.900000E-01   1.00800           0
      3200 MEMB     24       POPC     H11Y     HAL2     0.900000E-01   1.00800           0
      3201 MEMB     24       POPC     C312     CTL2    -0.180000       12.0110           0
      3202 MEMB     24       POPC     H12X     HAL2     0.900000E-01   1.00800           0
      3203 MEMB     24       POPC     H12Y     HAL2     0.900000E-01   1.00800           0
      3204 MEMB     24       POPC     C313     CTL2    -0.180000       12.0110           0
      3205 MEMB     24       POPC     H13X     HAL2     0.900000E-01   1.00800           0
      3206 MEMB     24       POPC     H13Y     HAL2     0.900000E-01   1.00800           0
      3207 MEMB     24       POPC     C314     CTL2    -0.180000       12.0110           0
      3208 MEMB     24       POPC     H14X     HAL2     0.900000E-01   1.00800           0
      3209 MEMB     24       POPC     H14Y     HAL2     0.900000E-01   1.00800           0
      3210 MEMB     24       POPC     C315     CTL2    -0.180000       12.0110           0
      3211 MEMB     24       POPC     H15X     HAL2     0.900000E-01   1.00800           0
      3212 MEMB     24       POPC     H15Y     HAL2     0.900000E-01   1.00800           0
      3213 MEMB     24       POPC     C316     CTL3    -0.270000       12.0110           0
      3214 MEMB     24       POPC     H16X     HAL3     0.900000E-01   1.00800           0
      3215 MEMB     24       POPC     H16Y     HAL3     0.900000E-01   1.00800           0
      3216 MEMB     24       POPC     H16Z     HAL3     0.900000E-01   1.00800           0
      3217 MEMB     25       POPC     N        NTL     -0.600000       14.0070           0
      3218 MEMB     25       POPC     C12      CTL2    -0.100000       12.0110           0
      3219 MEMB     25       POPC     H12A     HL       0.250000       1.00800           0
      3220 MEMB     25       POPC     H12B     HL       0.250000       1.00800           0
      3221 MEMB     25       POPC     C13      CTL5    -0.350000       12.0110           0
      3222 MEMB     25       POPC     H13A     HL       0.250000       1.00800           0
      3223 MEMB     25       POPC     H13B     HL       0.250000       1.00800           0
      3224 MEMB     25       POPC     H13C     HL       0.250000       1.00800           0
      3225 MEMB     25       POPC     C14      CTL5    -0.350000       12.0110           0
      3226 MEMB     25       POPC     H14A     HL       0.250000       1.00800           0
      3227 MEMB     25       POPC     H14B     HL       0.250000       1.00800           0
      3228 MEMB     25       POPC     H14C     HL       0.250000       1.00800           0
      3229 MEMB     25       POPC     C15      CTL5    -0.350000       12.0110           0
      3230 MEMB     25       POPC     H15A     HL       0.250000       1.00800           0
      3231 MEMB     25       POPC     H15B     HL       0.250000       1.00800           0
      3232 MEMB     25       POPC     H15C     HL       0.250000       1.00800           0
      3233 MEMB     25       POPC     C11      CTL2    -0.800000E-01   12.0110           0
      3234 MEMB     25       POPC     H11A     HAL2     0.900000E-01   1.00800           0
      3235 MEMB     25       POPC     H11B     HAL2     0.900000E-01   1.00800           0
      3236 MEMB     25       POPC     P        PL        1.50000       30.9740           0
      3237 MEMB     25       POPC     O13      O2L     -0.780000       15.9994           0
      3238 MEMB     25       POPC     O14      O2L     -0.780000       15.9994           0
      3239 MEMB     25       POPC     O12      OSLP    -0.570000       15.9994           0
      3240 MEMB     25       POPC     O11      OSLP    -0.570000       15.9994           0
      3241 MEMB     25       POPC     C1       CTL2    -0.800000E-01   12.0110           0
      3242 MEMB     25       POPC     HA       HAL2     0.900000E-01   1.00800           0
      3243 MEMB     25       POPC     HB       HAL2     0.900000E-01   1.00800           0
      3244 MEMB     25       POPC     C2       CTL1     0.170000       12.0110           0
      3245 MEMB     25       POPC     HS       HAL1     0.900000E-01   1.00800           0
      3246 MEMB     25       POPC     O21      OSL     -0.490000       15.9994           0
      3247 MEMB     25       POPC     C21      CL       0.900000       12.0110           0
      3248 MEMB     25       POPC     O22      OBL     -0.630000       15.9994           0
      3249 MEMB     25       POPC     C22      CTL2    -0.220000       12.0110           0
      3250 MEMB     25       POPC     H2R      HAL2     0.900000E-01   1.00800           0
      3251 MEMB     25       POPC     H2S      HAL2     0.900000E-01   1.00800           0
      3252 MEMB     25       POPC     C3       CTL2     0.800000E-01   12.0110           0
      3253 MEMB     25       POPC     HX       HAL2     0.900000E-01   1.00800           0
      3254 MEMB     25       POPC     HY       HAL2     0.900000E-01   1.00800           0
      3255 MEMB     25       POPC     O31      OSL     -0.490000       15.9994           0
      3256 MEMB     25       POPC     C31      CL       0.900000       12.0110           0
      3257 MEMB     25       POPC     O32      OBL     -0.630000       15.9994           0
      3258 MEMB     25       POPC     C32      CTL2    -0.220000       12.0110           0
      3259 MEMB     25       POPC     H2X      HAL2     0.900000E-01   1.00800           0
      3260 MEMB     25       POPC     H2Y      HAL2     0.900000E-01   1.00800           0
      3261 MEMB     25       POPC     C23      CTL2    -0.180000       12.0110           0
      3262 MEMB     25       POPC     H3R      HAL2     0.900000E-01   1.00800           0
      3263 MEMB     25       POPC     H3S      HAL2     0.900000E-01   1.00800           0
      3264 MEMB     25       POPC     C24      CTL2    -0.180000       12.0110           0
      3265 MEMB     25       POPC     H4R      HAL2     0.900000E-01   1.00800           0
      3266 MEMB     25       POPC     H4S      HAL2     0.900000E-01   1.00800           0
      3267 MEMB     25       POPC     C25      CTL2    -0.180000       12.0110           0
      3268 MEMB     25       POPC     H5R      HAL2     0.900000E-01   1.00800           0
      3269 MEMB     25       POPC     H5S      HAL2     0.900000E-01   1.00800           0
      3270 MEMB     25       POPC     C26      CTL2    -0.180000       12.0110           0
      3271 MEMB     25       POPC     H6R      HAL2     0.900000E-01   1.00800           0
      3272 MEMB     25       POPC     H6S      HAL2     0.900000E-01   1.00800           0
      3273 MEMB     25       POPC     C27      CTL2    -0.180000       12.0110           0
      3274 MEMB     25       POPC     H7R      HAL2     0.900000E-01   1.00800           0
      3275 MEMB     25       POPC     H7S      HAL2     0.900000E-01   1.00800           0
      3276 MEMB     25       POPC     C28      CTL2    -0.180000       12.0110           0
      3277 MEMB     25       POPC     H8R      HAL2     0.900000E-01   1.00800           0
      3278 MEMB     25       POPC     H8S      HAL2     0.900000E-01   1.00800           0
      3279 MEMB     25       POPC     C29      CEL1    -0.150000       12.0110           0
      3280 MEMB     25       POPC     H91      HEL1     0.150000       1.00800           0
      3281 MEMB     25       POPC     C210     CEL1    -0.150000       12.0110           0
      3282 MEMB     25       POPC     H101     HEL1     0.150000       1.00800           0
      3283 MEMB     25       POPC     C211     CTL2    -0.180000       12.0110           0
      3284 MEMB     25       POPC     H11R     HAL2     0.900000E-01   1.00800           0
      3285 MEMB     25       POPC     H11S     HAL2     0.900000E-01   1.00800           0
      3286 MEMB     25       POPC     C212     CTL2    -0.180000       12.0110           0
      3287 MEMB     25       POPC     H12R     HAL2     0.900000E-01   1.00800           0
      3288 MEMB     25       POPC     H12S     HAL2     0.900000E-01   1.00800           0
      3289 MEMB     25       POPC     C213     CTL2    -0.180000       12.0110           0
      3290 MEMB     25       POPC     H13R     HAL2     0.900000E-01   1.00800           0
      3291 MEMB     25       POPC     H13S     HAL2     0.900000E-01   1.00800           0
      3292 MEMB     25       POPC     C214     CTL2    -0.180000       12.0110           0
      3293 MEMB     25       POPC     H14R     HAL2     0.900000E-01   1.00800           0
      3294 MEMB     25       POPC     H14S     HAL2     0.900000E-01   1.00800           0
      3295 MEMB     25       POPC     C215     CTL2    -0.180000       12.0110           0
      3296 MEMB     25       POPC     H15R     HAL2     0.900000E-01   1.00800           0
      3297 MEMB     25       POPC     H15S     HAL2     0.900000E-01   1.00800           0
      3298 MEMB     25       POPC     C216     CTL2    -0.180000       12.0110           0
      3299 MEMB     25       POPC     H16R     HAL2     0.900000E-01   1.00800           0
      3300 MEMB     25       POPC     H16S     HAL2     0.900000E-01   1.00800           0
      3301 MEMB     25       POPC     C217     CTL2    -0.180000       12.0110           0
      3302 MEMB     25       POPC     H17R     HAL2     0.900000E-01   1.00800           0
      3303 MEMB     25       POPC     H17S     HAL2     0.900000E-01   1.00800           0
      3304 MEMB     25       POPC     C218     CTL3    -0.270000       12.0110           0
      3305 MEMB     25       POPC     H18R     HAL3     0.900000E-01   1.00800           0
      3306 MEMB     25       POPC     H18S     HAL3     0.900000E-01   1.00800           0
      3307 MEMB     25       POPC     H18T     HAL3     0.900000E-01   1.00800           0
      3308 MEMB     25       POPC     C33      CTL2    -0.180000       12.0110           0
      3309 MEMB     25       POPC     H3X      HAL2     0.900000E-01   1.00800           0
      3310 MEMB     25       POPC     H3Y      HAL2     0.900000E-01   1.00800           0
      3311 MEMB     25       POPC     C34      CTL2    -0.180000       12.0110           0
      3312 MEMB     25       POPC     H4X      HAL2     0.900000E-01   1.00800           0
      3313 MEMB     25       POPC     H4Y      HAL2     0.900000E-01   1.00800           0
      3314 MEMB     25       POPC     C35      CTL2    -0.180000       12.0110           0
      3315 MEMB     25       POPC     H5X      HAL2     0.900000E-01   1.00800           0
      3316 MEMB     25       POPC     H5Y      HAL2     0.900000E-01   1.00800           0
      3317 MEMB     25       POPC     C36      CTL2    -0.180000       12.0110           0
      3318 MEMB     25       POPC     H6X      HAL2     0.900000E-01   1.00800           0
      3319 MEMB     25       POPC     H6Y      HAL2     0.900000E-01   1.00800           0
      3320 MEMB     25       POPC     C37      CTL2    -0.180000       12.0110           0
      3321 MEMB     25       POPC     H7X      HAL2     0.900000E-01   1.00800           0
      3322 MEMB     25       POPC     H7Y      HAL2     0.900000E-01   1.00800           0
      3323 MEMB     25       POPC     C38      CTL2    -0.180000       12.0110           0
      3324 MEMB     25       POPC     H8X      HAL2     0.900000E-01   1.00800           0
      3325 MEMB     25       POPC     H8Y      HAL2     0.900000E-01   1.00800           0
      3326 MEMB     25       POPC     C39      CTL2    -0.180000       12.0110           0
      3327 MEMB     25       POPC     H9X      HAL2     0.900000E-01   1.00800           0
      3328 MEMB     25       POPC     H9Y      HAL2     0.900000E-01   1.00800           0
      3329 MEMB     25       POPC     C310     CTL2    -0.180000       12.0110           0
      3330 MEMB     25       POPC     H10X     HAL2     0.900000E-01   1.00800           0
      3331 MEMB     25       POPC     H10Y     HAL2     0.900000E-01   1.00800           0
      3332 MEMB     25       POPC     C311     CTL2    -0.180000       12.0110           0
      3333 MEMB     25       POPC     H11X     HAL2     0.900000E-01   1.00800           0
      3334 MEMB     25       POPC     H11Y     HAL2     0.900000E-01   1.00800           0
      3335 MEMB     25       POPC     C312     CTL2    -0.180000       12.0110           0
      3336 MEMB     25       POPC     H12X     HAL2     0.900000E-01   1.00800           0
      3337 MEMB     25       POPC     H12Y     HAL2     0.900000E-01   1.00800           0
      3338 MEMB     25       POPC     C313     CTL2    -0.180000       12.0110           0
      3339 MEMB     25       POPC     H13X     HAL2     0.900000E-01   1.00800           0
      3340 MEMB     25       POPC     H13Y     HAL2     0.900000E-01   1.00800           0
      3341 MEMB     25       POPC     C314     CTL2    -0.180000       12.0110           0
      3342 MEMB     25       POPC     H14X     HAL2     0.900000E-01   1.00800           0
      3343 MEMB     25       POPC     H14Y     HAL2     0.900000E-01   1.00800           0
      3344 MEMB     25       POPC     C315     CTL2    -0.180000       12.0110           0
      3345 MEMB     25       POPC     H15X     HAL2     0.900000E-01   1.00800           0
      3346 MEMB     25       POPC     H15Y     HAL2     0.900000E-01   1.00800           0
      3347 MEMB     25       POPC     C316     CTL3    -0.270000       12.0110           0
      3348 MEMB     25       POPC     H16X     HAL3     0.900000E-01   1.00800           0
      3349 MEMB     25       POPC     H16Y     HAL3     0.900000E-01   1.00800           0
      3350 MEMB     25       POPC     H16Z     HAL3     0.900000E-01   1.00800           0
      3351 MEMB     26       POPC     N        NTL     -0.600000       14.0070           0
      3352 MEMB     26       POPC     C12      CTL2    -0.100000       12.0110           0
      3353 MEMB     26       POPC     H12A     HL       0.250000       1.00800           0
      3354 MEMB     26       POPC     H12B     HL       0.250000       1.00800           0
      3355 MEMB     26       POPC     C13      CTL5    -0.350000       12.0110           0
      3356 MEMB     26       POPC     H13A     HL       0.250000       1.00800           0
      3357 MEMB     26       POPC     H13B     HL       0.250000       1.00800           0
      3358 MEMB     26       POPC     H13C     HL       0.250000       1.00800           0
      3359 MEMB     26       POPC     C14      CTL5    -0.350000       12.0110           0
      3360 MEMB     26       POPC     H14A     HL       0.250000       1.00800           0
      3361 MEMB     26       POPC     H14B     HL       0.250000       1.00800           0
      3362 MEMB     26       POPC     H14C     HL       0.250000       1.00800           0
      3363 MEMB     26       POPC     C15      CTL5    -0.350000       12.0110           0
      3364 MEMB     26       POPC     H15A     HL       0.250000       1.00800           0
      3365 MEMB     26       POPC     H15B     HL       0.250000       1.00800           0
      3366 MEMB     26       POPC     H15C     HL       0.250000       1.00800           0
      3367 MEMB     26       POPC     C11      CTL2    -0.800000E-01   12.0110           0
      3368 MEMB     26       POPC     H11A     HAL2     0.900000E-01   1.00800           0
      3369 MEMB     26       POPC     H11B     HAL2     0.900000E-01   1.00800           0
      3370 MEMB     26       POPC     P        PL        1.50000       30.9740           0
      3371 MEMB     26       POPC     O13      O2L     -0.780000       15.9994           0
      3372 MEMB     26       POPC     O14      O2L     -0.780000       15.9994           0
      3373 MEMB     26       POPC     O12      OSLP    -0.570000       15.9994           0
      3374 MEMB     26       POPC     O11      OSLP    -0.570000       15.9994           0
      3375 MEMB     26       POPC     C1       CTL2    -0.800000E-01   12.0110           0
      3376 MEMB     26       POPC     HA       HAL2     0.900000E-01   1.00800           0
      3377 MEMB     26       POPC     HB       HAL2     0.900000E-01   1.00800           0
      3378 MEMB     26       POPC     C2       CTL1     0.170000       12.0110           0
      3379 MEMB     26       POPC     HS       HAL1     0.900000E-01   1.00800           0
      3380 MEMB     26       POPC     O21      OSL     -0.490000       15.9994           0
      3381 MEMB     26       POPC     C21      CL       0.900000       12.0110           0
      3382 MEMB     26       POPC     O22      OBL     -0.630000       15.9994           0
      3383 MEMB     26       POPC     C22      CTL2    -0.220000       12.0110           0
      3384 MEMB     26       POPC     H2R      HAL2     0.900000E-01   1.00800           0
      3385 MEMB     26       POPC     H2S      HAL2     0.900000E-01   1.00800           0
      3386 MEMB     26       POPC     C3       CTL2     0.800000E-01   12.0110           0
      3387 MEMB     26       POPC     HX       HAL2     0.900000E-01   1.00800           0
      3388 MEMB     26       POPC     HY       HAL2     0.900000E-01   1.00800           0
      3389 MEMB     26       POPC     O31      OSL     -0.490000       15.9994           0
      3390 MEMB     26       POPC     C31      CL       0.900000       12.0110           0
      3391 MEMB     26       POPC     O32      OBL     -0.630000       15.9994           0
      3392 MEMB     26       POPC     C32      CTL2    -0.220000       12.0110           0
      3393 MEMB     26       POPC     H2X      HAL2     0.900000E-01   1.00800           0
      3394 MEMB     26       POPC     H2Y      HAL2     0.900000E-01   1.00800           0
      3395 MEMB     26       POPC     C23      CTL2    -0.180000       12.0110           0
      3396 MEMB     26       POPC     H3R      HAL2     0.900000E-01   1.00800           0
      3397 MEMB     26       POPC     H3S      HAL2     0.900000E-01   1.00800           0
      3398 MEMB     26       POPC     C24      CTL2    -0.180000       12.0110           0
      3399 MEMB     26       POPC     H4R      HAL2     0.900000E-01   1.00800           0
      3400 MEMB     26       POPC     H4S      HAL2     0.900000E-01   1.00800           0
      3401 MEMB     26       POPC     C25      CTL2    -0.180000       12.0110           0
      3402 MEMB     26       POPC     H5R      HAL2     0.900000E-01   1.00800           0
      3403 MEMB     26       POPC     H5S      HAL2     0.900000E-01   1.00800           0
      3404 MEMB     26       POPC     C26      CTL2    -0.180000       12.0110           0
      3405 MEMB     26       POPC     H6R      HAL2     0.900000E-01   1.00800           0
      3406 MEMB     26       POPC     H6S      HAL2     0.900000E-01   1.00800           0
      3407 MEMB     26       POPC     C27      CTL2    -0.180000       12.0110           0
      3408 MEMB     26       POPC     H7R      HAL2     0.900000E-01   1.00800           0
      3409 MEMB     26       POPC     H7S      HAL2     0.900000E-01   1.00800           0
      3410 MEMB     26       POPC     C28      CTL2    -0.180000       12.0110           0
      3411 MEMB     26       POPC     H8R      HAL2     0.900000E-01   1.00800           0
      3412 MEMB     26       POPC     H8S      HAL2     0.900000E-01   1.00800           0
      3413 MEMB     26       POPC     C29      CEL1    -0.150000       12.0110           0
      3414 MEMB     26       POPC     H91      HEL1     0.150000       1.00800           0
      3415 MEMB     26       POPC     C210     CEL1    -0.150000       12.0110           0
      3416 MEMB     26       POPC     H101     HEL1     0.150000       1.00800           0
      3417 MEMB     26       POPC     C211     CTL2    -0.180000       12.0110           0
      3418 MEMB     26       POPC     H11R     HAL2     0.900000E-01   1.00800           0
      3419 MEMB     26       POPC     H11S     HAL2     0.900000E-01   1.00800           0
      3420 MEMB     26       POPC     C212     CTL2    -0.180000       12.0110           0
      3421 MEMB     26       POPC     H12R     HAL2     0.900000E-01   1.00800           0
      3422 MEMB     26       POPC     H12S     HAL2     0.900000E-01   1.00800           0
      3423 MEMB     26       POPC     C213     CTL2    -0.180000       12.0110           0
      3424 MEMB     26       POPC     H13R     HAL2     0.900000E-01   1.00800           0
      3425 MEMB     26       POPC     H13S     HAL2     0.900000E-01   1.00800           0
      3426 MEMB     26       POPC     C214     CTL2    -0.180000       12.0110           0
      3427 MEMB     26       POPC     H14R     HAL2     0.900000E-01   1.00800           0
      3428 MEMB     26       POPC     H14S     HAL2     0.900000E-01   1.00800           0
      3429 MEMB     26       POPC     C215     CTL2    -0.180000       12.0110           0
      3430 MEMB     26       POPC     H15R     HAL2     0.900000E-01   1.00800           0
      3431 MEMB     26       POPC     H15S     HAL2     0.900000E-01   1.00800           0
      3432 MEMB     26       POPC     C216     CTL2    -0.180000       12.0110           0
      3433 MEMB     26       POPC     H16R     HAL2     0.900000E-01   1.00800           0
      3434 MEMB     26       POPC     H16S     HAL2     0.900000E-01   1.00800           0
      3435 MEMB     26       POPC     C217     CTL2    -0.180000       12.0110           0
      3436 MEMB     26       POPC     H17R     HAL2     0.900000E-01   1.00800           0
      3437 MEMB     26       POPC     H17S     HAL2     0.900000E-01   1.00800           0
      3438 MEMB     26       POPC     C218     CTL3    -0.270000       12.0110           0
      3439 MEMB     26       POPC     H18R     HAL3     0.900000E-01   1.00800           0
      3440 MEMB     26       POPC     H18S     HAL3     0.900000E-01   1.00800           0
      3441 MEMB     26       POPC     H18T     HAL3     0.900000E-01   1.00800           0
      3442 MEMB     26       POPC     C33      CTL2    -0.180000       12.0110           0
      3443 MEMB     26       POPC     H3X      HAL2     0.900000E-01   1.00800           0
      3444 MEMB     26       POPC     H3Y      HAL2     0.900000E-01   1.00800           0
      3445 MEMB     26       POPC     C34      CTL2    -0.180000       12.0110           0
      3446 MEMB     26       POPC     H4X      HAL2     0.900000E-01   1.00800           0
      3447 MEMB     26       POPC     H4Y      HAL2     0.900000E-01   1.00800           0
      3448 MEMB     26       POPC     C35      CTL2    -0.180000       12.0110           0
      3449 MEMB     26       POPC     H5X      HAL2     0.900000E-01   1.00800           0
      3450 MEMB     26       POPC     H5Y      HAL2     0.900000E-01   1.00800           0
      3451 MEMB     26       POPC     C36      CTL2    -0.180000       12.0110           0
      3452 MEMB     26       POPC     H6X      HAL2     0.900000E-01   1.00800           0
      3453 MEMB     26       POPC     H6Y      HAL2     0.900000E-01   1.00800           0
      3454 MEMB     26       POPC     C37      CTL2    -0.180000       12.0110           0
      3455 MEMB     26       POPC     H7X      HAL2     0.900000E-01   1.00800           0
      3456 MEMB     26       POPC     H7Y      HAL2     0.900000E-01   1.00800           0
      3457 MEMB     26       POPC     C38      CTL2    -0.180000       12.0110           0
      3458 MEMB     26       POPC     H8X      HAL2     0.900000E-01   1.00800           0
      3459 MEMB     26       POPC     H8Y      HAL2     0.900000E-01   1.00800           0
      3460 MEMB     26       POPC     C39      CTL2    -0.180000       12.0110           0
      3461 MEMB     26       POPC     H9X      HAL2     0.900000E-01   1.00800           0
      3462 MEMB     26       POPC     H9Y      HAL2     0.900000E-01   1.00800           0
      3463 MEMB     26       POPC     C310     CTL2    -0.180000       12.0110           0
      3464 MEMB     26       POPC     H10X     HAL2     0.900000E-01   1.00800           0
      3465 MEMB     26       POPC     H10Y     HAL2     0.900000E-01   1.00800           0
      3466 MEMB     26       POPC     C311     CTL2    -0.180000       12.0110           0
      3467 MEMB     26       POPC     H11X     HAL2     0.900000E-01   1.00800           0
      3468 MEMB     26       POPC     H11Y     HAL2     0.900000E-01   1.00800           0
      3469 MEMB     26       POPC     C312     CTL2    -0.180000       12.0110           0
      3470 MEMB     26       POPC     H12X     HAL2     0.900000E-01   1.00800           0
      3471 MEMB     26       POPC     H12Y     HAL2     0.900000E-01   1.00800           0
      3472 MEMB     26       POPC     C313     CTL2    -0.180000       12.0110           0
      3473 MEMB     26       POPC     H13X     HAL2     0.900000E-01   1.00800           0
      3474 MEMB     26       POPC     H13Y     HAL2     0.900000E-01   1.00800           0
      3475 MEMB     26       POPC     C314     CTL2    -0.180000       12.0110           0
      3476 MEMB     26       POPC     H14X     HAL2     0.900000E-01   1.00800           0
      3477 MEMB     26       POPC     H14Y     HAL2     0.900000E-01   1.00800           0
      3478 MEMB     26       POPC     C315     CTL2    -0.180000       12.0110           0
      3479 MEMB     26       POPC     H15X     HAL2     0.900000E-01   1.00800           0
      3480 MEMB     26       POPC     H15Y     HAL2     0.900000E-01   1.00800           0
      3481 MEMB     26       POPC     C316     CTL3    -0.270000       12.0110           0
      3482 MEMB     26       POPC     H16X     HAL3     0.900000E-01   1.00800           0
      3483 MEMB     26       POPC     H16Y     HAL3     0.900000E-01   1.00800           0
      3484 MEMB     26       POPC     H16Z     HAL3     0.900000E-01   1.00800           0
      3485 MEMB     27       POPC     N        NTL     -0.600000       14.0070           0
      3486 MEMB     27       POPC     C12      CTL2    -0.100000       12.0110           0
      3487 MEMB     27       POPC     H12A     HL       0.250000       1.00800           0
      3488 MEMB     27       POPC     H12B     HL       0.250000       1.00800           0
      3489 MEMB     27       POPC     C13      CTL5    -0.350000       12.0110           0
      3490 MEMB     27       POPC     H13A     HL       0.250000       1.00800           0
      3491 MEMB     27       POPC     H13B     HL       0.250000       1.00800           0
      3492 MEMB     27       POPC     H13C     HL       0.250000       1.00800           0
      3493 MEMB     27       POPC     C14      CTL5    -0.350000       12.0110           0
      3494 MEMB     27       POPC     H14A     HL       0.250000       1.00800           0
      3495 MEMB     27       POPC     H14B     HL       0.250000       1.00800           0
      3496 MEMB     27       POPC     H14C     HL       0.250000       1.00800           0
      3497 MEMB     27       POPC     C15      CTL5    -0.350000       12.0110           0
      3498 MEMB     27       POPC     H15A     HL       0.250000       1.00800           0
      3499 MEMB     27       POPC     H15B     HL       0.250000       1.00800           0
      3500 MEMB     27       POPC     H15C     HL       0.250000       1.00800           0
      3501 MEMB     27       POPC     C11      CTL2    -0.800000E-01   12.0110           0
      3502 MEMB     27       POPC     H11A     HAL2     0.900000E-01   1.00800           0
      3503 MEMB     27       POPC     H11B     HAL2     0.900000E-01   1.00800           0
      3504 MEMB     27       POPC     P        PL        1.50000       30.9740           0
      3505 MEMB     27       POPC     O13      O2L     -0.780000       15.9994           0
      3506 MEMB     27       POPC     O14      O2L     -0.780000       15.9994           0
      3507 MEMB     27       POPC     O12      OSLP    -0.570000       15.9994           0
      3508 MEMB     27       POPC     O11      OSLP    -0.570000       15.9994           0
      3509 MEMB     27       POPC     C1       CTL2    -0.800000E-01   12.0110           0
      3510 MEMB     27       POPC     HA       HAL2     0.900000E-01   1.00800           0
      3511 MEMB     27       POPC     HB       HAL2     0.900000E-01   1.00800           0
      3512 MEMB     27       POPC     C2       CTL1     0.170000       12.0110           0
      3513 MEMB     27       POPC     HS       HAL1     0.900000E-01   1.00800           0
      3514 MEMB     27       POPC     O21      OSL     -0.490000       15.9994           0
      3515 MEMB     27       POPC     C21      CL       0.900000       12.0110           0
      3516 MEMB     27       POPC     O22      OBL     -0.630000       15.9994           0
      3517 MEMB     27       POPC     C22      CTL2    -0.220000       12.0110           0
      3518 MEMB     27       POPC     H2R      HAL2     0.900000E-01   1.00800           0
      3519 MEMB     27       POPC     H2S      HAL2     0.900000E-01   1.00800           0
      3520 MEMB     27       POPC     C3       CTL2     0.800000E-01   12.0110           0
      3521 MEMB     27       POPC     HX       HAL2     0.900000E-01   1.00800           0
      3522 MEMB     27       POPC     HY       HAL2     0.900000E-01   1.00800           0
      3523 MEMB     27       POPC     O31      OSL     -0.490000       15.9994           0
      3524 MEMB     27       POPC     C31      CL       0.900000       12.0110           0
      3525 MEMB     27       POPC     O32      OBL     -0.630000       15.9994           0
      3526 MEMB     27       POPC     C32      CTL2    -0.220000       12.0110           0
      3527 MEMB     27       POPC     H2X      HAL2     0.900000E-01   1.00800           0
      3528 MEMB     27       POPC     H2Y      HAL2     0.900000E-01   1.00800           0
      3529 MEMB     27       POPC     C23      CTL2    -0.180000       12.0110           0
      3530 MEMB     27       POPC     H3R      HAL2     0.900000E-01   1.00800           0
      3531 MEMB     27       POPC     H3S      HAL2     0.900000E-01   1.00800           0
      3532 MEMB     27       POPC     C24      CTL2    -0.180000       12.0110           0
      3533 MEMB     27       POPC     H4R      HAL2     0.900000E-01   1.00800           0
      3534 MEMB     27       POPC     H4S      HAL2     0.900000E-01   1.00800           0
      3535 MEMB     27       POPC     C25      CTL2    -0.180000       12.0110           0
      3536 MEMB     27       POPC     H5R      HAL2     0.900000E-01   1.00800           0
      3537 MEMB     27       POPC     H5S      HAL2     0.900000E-01   1.00800           0
      3538 MEMB     27       POPC     C26      CTL2    -0.180000       12.0110           0
      3539 MEMB     27       POPC     H6R      HAL2     0.900000E-01   1.00800           0
      3540 MEMB     27       POPC     H6S      HAL2     0.900000E-01   1.00800           0
      3541 MEMB     27       POPC     C27      CTL2    -0.180000       12.0110           0
      3542 MEMB     27       POPC     H7R      HAL2     0.900000E-01   1.00800           0
      3543 MEMB     27       POPC     H7S      HAL2     0.900000E-01   1.00800           0
      3544 MEMB     27       POPC     C28      CTL2    -0.180000       12.0110           0
      3545 MEMB     27       POPC     H8R      HAL2     0.900000E-01   1.00800           0
      3546 MEMB     27       POPC     H8S      HAL2     0.900000E-01   1.00800           0
      3547 MEMB     27       POPC     C29      CEL1    -0.150000       12.0110           0
      3548 MEMB     27       POPC     H91      HEL1     0.150000       1.00800           0
      3549 MEMB     27       POPC     C210     CEL1    -0.150000       12.0110           0
      3550 MEMB     27       POPC     H101     HEL1     0.150000       1.00800           0
      3551 MEMB     27       POPC     C211     CTL2    -0.180000       12.0110           0
      3552 MEMB     27       POPC     H11R     HAL2     0.900000E-01   1.00800           0
      3553 MEMB     27       POPC     H11S     HAL2     0.900000E-01   1.00800           0
      3554 MEMB     27       POPC     C212     CTL2    -0.180000       12.0110           0
      3555 MEMB     27       POPC     H12R     HAL2     0.900000E-01   1.00800           0
      3556 MEMB     27       POPC     H12S     HAL2     0.900000E-01   1.00800           0
      3557 MEMB     27       POPC     C213     CTL2    -0.180000       12.0110           0
      3558 MEMB     27       POPC     H13R     HAL2     0.900000E-01   1.00800           0
      3559 MEMB     27       POPC     H13S     HAL2     0.900000E-01   1.00800           0
      3560 MEMB     27       POPC     C214     CTL2    -0.180000       12.0110           0
      3561 MEMB     27       POPC     H14R     HAL2     0.900000E-01   1.00800           0
      3562 MEMB     27       POPC     H14S     HAL2     0.900000E-01   1.00800           0
      3563 MEMB     27       POPC     C215     CTL2    -0.180000       12.0110           0
      3564 MEMB     27       POPC     H15R     HAL2     0.900000E-01   1.00800           0
      3565 MEMB     27       POPC     H15S     HAL2     0.900000E-01   1.00800           0
      3566 MEMB     27       POPC     C216     CTL2    -0.180000       12.0110           0
      3567 MEMB     27       POPC     H16R     HAL2     0.900000E-01   1.00800           0
      3568 MEMB     27       POPC     H16S     HAL2     0.900000E-01   1.00800           0
      3569 MEMB     27       POPC     C217     CTL2    -0.180000       12.0110           0
      3570 MEMB     27       POPC     H17R     HAL2     0.900000E-01   1.00800           0
      3571 MEMB     27       POPC     H17S     HAL2     0.900000E-01   1.00800           0
      3572 MEMB     27       POPC     C218     CTL3    -0.270000       12.0110           0
      3573 MEMB     27       POPC     H18R     HAL3     0.900000E-01   1.00800           0
      3574 MEMB     27       POPC     H18S     HAL3     0.900000E-01   1.00800           0
      3575 MEMB     27       POPC     H18T     HAL3     0.900000E-01   1.00800           0
      3576 MEMB     27       POPC     C33      CTL2    -0.180000       12.0110           0
      3577 MEMB     27       POPC     H3X      HAL2     0.900000E-01   1.00800           0
      3578 MEMB     27       POPC     H3Y      HAL2     0.900000E-01   1.00800           0
      3579 MEMB     27       POPC     C34      CTL2    -0.180000       12.0110           0
      3580 MEMB     27       POPC     H4X      HAL2     0.900000E-01   1.00800           0
      3581 MEMB     27       POPC     H4Y      HAL2     0.900000E-01   1.00800           0
      3582 MEMB     27       POPC     C35      CTL2    -0.180000       12.0110           0
      3583 MEMB     27       POPC     H5X      HAL2     0.900000E-01   1.00800           0
      3584 MEMB     27       POPC     H5Y      HAL2     0.900000E-01   1.00800           0
      3585 MEMB     27       POPC     C36      CTL2    -0.180000       12.0110           0
      3586 MEMB     27       POPC     H6X      HAL2     0.900000E-01   1.00800           0
      3587 MEMB     27       POPC     H6Y      HAL2     0.900000E-01   1.00800           0
      3588 MEMB     27       POPC     C37      CTL2    -0.180000       12.0110           0
      3589 MEMB     27       POPC     H7X      HAL2     0.900000E-01   1.00800           0
      3590 MEMB     27       POPC     H7Y      HAL2     0.900000E-01   1.00800           0
      3591 MEMB     27       POPC     C38      CTL2    -0.180000       12.0110           0
      3592 MEMB     27       POPC     H8X      HAL2     0.900000E-01   1.00800           0
      3593 MEMB     27       POPC     H8Y      HAL2     0.900000E-01   1.00800           0
      3594 MEMB     27       POPC     C39      CTL2    -0.180000       12.0110           0
      3595 MEMB     27       POPC     H9X      HAL2     0.900000E-01   1.00800           0
      3596 MEMB     27       POPC     H9Y      HAL2     0.900000E-01   1.00800           0
      3597 MEMB     27       POPC     C310     CTL2    -0.180000       12.0110           0
      3598 MEMB     27       POPC     H10X     HAL2     0.900000E-01   1.00800           0
      3599 MEMB     27       POPC     H10Y     HAL2     0.900000E-01   1.00800           0
      3600 MEMB     27       POPC     C311     CTL2    -0.180000       12.0110           0
      3601 MEMB     27       POPC     H11X     HAL2     0.900000E-01   1.00800           0
      3602 MEMB     27       POPC     H11Y     HAL2     0.900000E-01   1.00800           0
      3603 MEMB     27       POPC     C312     CTL2    -0.180000       12.0110           0
      3604 MEMB     27       POPC     H12X     HAL2     0.900000E-01   1.00800           0
      3605 MEMB     27       POPC     H12Y     HAL2     0.900000E-01   1.00800           0
      3606 MEMB     27       POPC     C313     CTL2    -0.180000       12.0110           0
      3607 MEMB     27       POPC     H13X     HAL2     0.900000E-01   1.00800           0
      3608 MEMB     27       POPC     H13Y     HAL2     0.900000E-01   1.00800           0
      3609 MEMB     27       POPC     C314     CTL2    -0.180000       12.0110           0
      3610 MEMB     27       POPC     H14X     HAL2     0.900000E-01   1.00800           0
      3611 MEMB     27       POPC     H14Y     HAL2     0.900000E-01   1.00800           0
      3612 MEMB     27       POPC     C315     CTL2    -0.180000       12.0110           0
      3613 MEMB     27       POPC     H15X     HAL2     0.900000E-01   1.00800           0
      3614 MEMB     27       POPC     H15Y     HAL2     0.900000E-01   1.00800           0
      3615 MEMB     27       POPC     C316     CTL3    -0.270000       12.0110           0
      3616 MEMB     27       POPC     H16X     HAL3     0.900000E-01   1.00800           0
      3617 MEMB     27       POPC     H16Y     HAL3     0.900000E-01   1.00800           0
      3618 MEMB     27       POPC     H16Z     HAL3     0.900000E-01   1.00800           0
      3619 MEMB     28       POPC     N        NTL     -0.600000       14.0070           0
      3620 MEMB     28       POPC     C12      CTL2    -0.100000       12.0110           0
      3621 MEMB     28       POPC     H12A     HL       0.250000       1.00800           0
      3622 MEMB     28       POPC     H12B     HL       0.250000       1.00800           0
      3623 MEMB     28       POPC     C13      CTL5    -0.350000       12.0110           0
      3624 MEMB     28       POPC     H13A     HL       0.250000       1.00800           0
      3625 MEMB     28       POPC     H13B     HL       0.250000       1.00800           0
      3626 MEMB     28       POPC     H13C     HL       0.250000       1.00800           0
      3627 MEMB     28       POPC     C14      CTL5    -0.350000       12.0110           0
      3628 MEMB     28       POPC     H14A     HL       0.250000       1.00800           0
      3629 MEMB     28       POPC     H14B     HL       0.250000       1.00800           0
      3630 MEMB     28       POPC     H14C     HL       0.250000       1.00800           0
      3631 MEMB     28       POPC     C15      CTL5    -0.350000       12.0110           0
      3632 MEMB     28       POPC     H15A     HL       0.250000       1.00800           0
      3633 MEMB     28       POPC     H15B     HL       0.250000       1.00800           0
      3634 MEMB     28       POPC     H15C     HL       0.250000       1.00800           0
      3635 MEMB     28       POPC     C11      CTL2    -0.800000E-01   12.0110           0
      3636 MEMB     28       POPC     H11A     HAL2     0.900000E-01   1.00800           0
      3637 MEMB     28       POPC     H11B     HAL2     0.900000E-01   1.00800           0
      3638 MEMB     28       POPC     P        PL        1.50000       30.9740           0
      3639 MEMB     28       POPC     O13      O2L     -0.780000       15.9994           0
      3640 MEMB     28       POPC     O14      O2L     -0.780000       15.9994           0
      3641 MEMB     28       POPC     O12      OSLP    -0.570000       15.9994           0
      3642 MEMB     28       POPC     O11      OSLP    -0.570000       15.9994           0
      3643 MEMB     28       POPC     C1       CTL2    -0.800000E-01   12.0110           0
      3644 MEMB     28       POPC     HA       HAL2     0.900000E-01   1.00800           0
      3645 MEMB     28       POPC     HB       HAL2     0.900000E-01   1.00800           0
      3646 MEMB     28       POPC     C2       CTL1     0.170000       12.0110           0
      3647 MEMB     28       POPC     HS       HAL1     0.900000E-01   1.00800           0
      3648 MEMB     28       POPC     O21      OSL     -0.490000       15.9994           0
      3649 MEMB     28       POPC     C21      CL       0.900000       12.0110           0
      3650 MEMB     28       POPC     O22      OBL     -0.630000       15.9994           0
      3651 MEMB     28       POPC     C22      CTL2    -0.220000       12.0110           0
      3652 MEMB     28       POPC     H2R      HAL2     0.900000E-01   1.00800           0
      3653 MEMB     28       POPC     H2S      HAL2     0.900000E-01   1.00800           0
      3654 MEMB     28       POPC     C3       CTL2     0.800000E-01   12.0110           0
      3655 MEMB     28       POPC     HX       HAL2     0.900000E-01   1.00800           0
      3656 MEMB     28       POPC     HY       HAL2     0.900000E-01   1.00800           0
      3657 MEMB     28       POPC     O31      OSL     -0.490000       15.9994           0
      3658 MEMB     28       POPC     C31      CL       0.900000       12.0110           0
      3659 MEMB     28       POPC     O32      OBL     -0.630000       15.9994           0
      3660 MEMB     28       POPC     C32      CTL2    -0.220000       12.0110           0
      3661 MEMB     28       POPC     H2X      HAL2     0.900000E-01   1.00800           0
      3662 MEMB     28       POPC     H2Y      HAL2     0.900000E-01   1.00800           0
      3663 MEMB     28       POPC     C23      CTL2    -0.180000       12.0110           0
      3664 MEMB     28       POPC     H3R      HAL2     0.900000E-01   1.00800           0
      3665 MEMB     28       POPC     H3S      HAL2     0.900000E-01   1.00800           0
      3666 MEMB     28       POPC     C24      CTL2    -0.180000       12.0110           0
      3667 MEMB     28       POPC     H4R      HAL2     0.900000E-01   1.00800           0
      3668 MEMB     28       POPC     H4S      HAL2     0.900000E-01   1.00800           0
      3669 MEMB     28       POPC     C25      CTL2    -0.180000       12.0110           0
      3670 MEMB     28       POPC     H5R      HAL2     0.900000E-01   1.00800           0
      3671 MEMB     28       POPC     H5S      HAL2     0.900000E-01   1.00800           0
      3672 MEMB     28       POPC     C26      CTL2    -0.180000       12.0110           0
      3673 MEMB     28       POPC     H6R      HAL2     0.900000E-01   1.00800           0
      3674 MEMB     28       POPC     H6S      HAL2     0.900000E-01   1.00800           0
      3675 MEMB     28       POPC     C27      CTL2    -0.180000       12.0110           0
      3676 MEMB     28       POPC     H7R      HAL2     0.900000E-01   1.00800           0
      3677 MEMB     28       POPC     H7S      HAL2     0.900000E-01   1.00800           0
      3678 MEMB     28       POPC     C28      CTL2    -0.180000       12.0110           0
      3679 MEMB     28       POPC     H8R      HAL2     0.900000E-01   1.00800           0
      3680 MEMB     28       POPC     H8S      HAL2     0.900000E-01   1.00800           0
      3681 MEMB     28       POPC     C29      CEL1    -0.150000       12.0110           0
      3682 MEMB     28       POPC     H91      HEL1     0.150000       1.00800           0
      3683 MEMB     28       POPC     C210     CEL1    -0.150000       12.0110           0
      3684 MEMB     28       POPC     H101     HEL1     0.150000       1.00800           0
      3685 MEMB     28       POPC     C211     CTL2    -0.180000       12.0110           0
      3686 MEMB     28       POPC     H11R     HAL2     0.900000E-01   1.00800           0
      3687 MEMB     28       POPC     H11S     HAL2     0.900000E-01   1.00800           0
      3688 MEMB     28       POPC     C212     CTL2    -0.180000       12.0110           0
      3689 MEMB     28       POPC     H12R     HAL2     0.900000E-01   1.00800           0
      3690 MEMB     28       POPC     H12S     HAL2     0.900000E-01   1.00800           0
      3691 MEMB     28       POPC     C213     CTL2    -0.180000       12.0110           0
      3692 MEMB     28       POPC     H13R     HAL2     0.900000E-01   1.00800           0
      3693 MEMB     28       POPC     H13S     HAL2     0.900000E-01   1.00800           0
      3694 MEMB     28       POPC     C214     CTL2    -0.180000       12.0110           0
      3695 MEMB     28       POPC     H14R     HAL2     0.900000E-01   1.00800           0
      3696 MEMB     28       POPC     H14S     HAL2     0.900000E-01   1.00800           0
      3697 MEMB     28       POPC     C215     CTL2    -0.180000       12.0110           0
      3698 MEMB     28       POPC     H15R     HAL2     0.900000E-01   1.00800           0
      3699 MEMB     28       POPC     H15S     HAL2     0.900000E-01   1.00800           0
      3700 MEMB     28       POPC     C216     CTL2    -0.180000       12.0110           0
      3701 MEMB     28       POPC     H16R     HAL2     0.900000E-01   1.00800           0
      3702 MEMB     28       POPC     H16S     HAL2     0.900000E-01   1.00800           0
      3703 MEMB     28       POPC     C217     CTL2    -0.180000       12.0110           0
      3704 MEMB     28       POPC     H17R     HAL2     0.900000E-01   1.00800           0
      3705 MEMB     28       POPC     H17S     HAL2     0.900000E-01   1.00800           0
      3706 MEMB     28       POPC     C218     CTL3    -0.270000       12.0110           0
      3707 MEMB     28       POPC     H18R     HAL3     0.900000E-01   1.00800           0
      3708 MEMB     28       POPC     H18S     HAL3     0.900000E-01   1.00800           0
      3709 MEMB     28       POPC     H18T     HAL3     0.900000E-01   1.00800           0
      3710 MEMB     28       POPC     C33      CTL2    -0.180000       12.0110           0
      3711 MEMB     28       POPC     H3X      HAL2     0.900000E-01   1.00800           0
      3712 MEMB     28       POPC     H3Y      HAL2     0.900000E-01   1.00800           0
      3713 MEMB     28       POPC     C34      CTL2    -0.180000       12.0110           0
      3714 MEMB     28       POPC     H4X      HAL2     0.900000E-01   1.00800           0
      3715 MEMB     28       POPC     H4Y      HAL2     0.900000E-01   1.00800           0
      3716 MEMB     28       POPC     C35      CTL2    -0.180000       12.0110           0
      3717 MEMB     28       POPC     H5X      HAL2     0.900000E-01   1.00800           0
      3718 MEMB     28       POPC     H5Y      HAL2     0.900000E-01   1.00800           0
      3719 MEMB     28       POPC     C36      CTL2    -0.180000       12.0110           0
      3720 MEMB     28       POPC     H6X      HAL2     0.900000E-01   1.00800           0
      3721 MEMB     28       POPC     H6Y      HAL2     0.900000E-01   1.00800           0
      3722 MEMB     28       POPC     C37      CTL2    -0.180000       12.0110           0
      3723 MEMB     28       POPC     H7X      HAL2     0.900000E-01   1.00800           0
      3724 MEMB     28       POPC     H7Y      HAL2     0.900000E-01   1.00800           0
      3725 MEMB     28       POPC     C38      CTL2    -0.180000       12.0110           0
      3726 MEMB     28       POPC     H8X      HAL2     0.900000E-01   1.00800           0
      3727 MEMB     28       POPC     H8Y      HAL2     0.900000E-01   1.00800           0
      3728 MEMB     28       POPC     C39      CTL2    -0.180000       12.0110           0
      3729 MEMB     28       POPC     H9X      HAL2     0.900000E-01   1.00800           0
      3730 MEMB     28       POPC     H9Y      HAL2     0.900000E-01   1.00800           0
      3731 MEMB     28       POPC     C310     CTL2    -0.180000       12.0110           0
      3732 MEMB     28       POPC     H10X     HAL2     0.900000E-01   1.00800           0
      3733 MEMB     28       POPC     H10Y     HAL2     0.900000E-01   1.00800           0
      3734 MEMB     28       POPC     C311     CTL2    -0.180000       12.0110           0
      3735 MEMB     28       POPC     H11X     HAL2     0.900000E-01   1.00800           0
      3736 MEMB     28       POPC     H11Y     HAL2     0.900000E-01   1.00800           0
      3737 MEMB     28       POPC     C312     CTL2    -0.180000       12.0110           0
      3738 MEMB     28       POPC     H12X     HAL2     0.900000E-01   1.00800           0
      3739 MEMB     28       POPC     H12Y     HAL2     0.900000E-01   1.00800           0
      3740 MEMB     28       POPC     C313     CTL2    -0.180000       12.0110           0
      3741 MEMB     28       POPC     H13X     HAL2     0.900000E-01   1.00800           0
      3742 MEMB     28       POPC     H13Y     HAL2     0.900000E-01   1.00800           0
      3743 MEMB     28       POPC     C314     CTL2    -0.180000       12.0110           0
      3744 MEMB     28       POPC     H14X     HAL2     0.900000E-01   1.00800           0
      3745 MEMB     28       POPC     H14Y     HAL2     0.900000E-01   1.00800           0
      3746 MEMB     28       POPC     C315     CTL2    -0.180000       12.0110           0
      3747 MEMB     28       POPC     H15X     HAL2     0.900000E-01   1.00800           0
      3748 MEMB     28       POPC     H15Y     HAL2     0.900000E-01   1.00800           0
      3749 MEMB     28       POPC     C316     CTL3    -0.270000       12.0110           0
      3750 MEMB     28       POPC     H16X     HAL3     0.900000E-01   1.00800           0
      3751 MEMB     28       POPC     H16Y     HAL3     0.900000E-01   1.00800           0
      3752 MEMB     28       POPC     H16Z     HAL3     0.900000E-01   1.00800           0
      3753 MEMB     29       POPC     N        NTL     -0.600000       14.0070           0
      3754 MEMB     29       POPC     C12      CTL2    -0.100000       12.0110           0
      3755 MEMB     29       POPC     H12A     HL       0.250000       1.00800           0
      3756 MEMB     29       POPC     H12B     HL       0.250000       1.00800           0
      3757 MEMB     29       POPC     C13      CTL5    -0.350000       12.0110           0
      3758 MEMB     29       POPC     H13A     HL       0.250000       1.00800           0
      3759 MEMB     29       POPC     H13B     HL       0.250000       1.00800           0
      3760 MEMB     29       POPC     H13C     HL       0.250000       1.00800           0
      3761 MEMB     29       POPC     C14      CTL5    -0.350000       12.0110           0
      3762 MEMB     29       POPC     H14A     HL       0.250000       1.00800           0
      3763 MEMB     29       POPC     H14B     HL       0.250000       1.00800           0
      3764 MEMB     29       POPC     H14C     HL       0.250000       1.00800           0
      3765 MEMB     29       POPC     C15      CTL5    -0.350000       12.0110           0
      3766 MEMB     29       POPC     H15A     HL       0.250000       1.00800           0
      3767 MEMB     29       POPC     H15B     HL       0.250000       1.00800           0
      3768 MEMB     29       POPC     H15C     HL       0.250000       1.00800           0
      3769 MEMB     29       POPC     C11      CTL2    -0.800000E-01   12.0110           0
      3770 MEMB     29       POPC     H11A     HAL2     0.900000E-01   1.00800           0
      3771 MEMB     29       POPC     H11B     HAL2     0.900000E-01   1.00800           0
      3772 MEMB     29       POPC     P        PL        1.50000       30.9740           0
      3773 MEMB     29       POPC     O13      O2L     -0.780000       15.9994           0
      3774 MEMB     29       POPC     O14      O2L     -0.780000       15.9994           0
      3775 MEMB     29       POPC     O12      OSLP    -0.570000       15.9994           0
      3776 MEMB     29       POPC     O11      OSLP    -0.570000       15.9994           0
      3777 MEMB     29       POPC     C1       CTL2    -0.800000E-01   12.0110           0
      3778 MEMB     29       POPC     HA       HAL2     0.900000E-01   1.00800           0
      3779 MEMB     29       POPC     HB       HAL2     0.900000E-01   1.00800           0
      3780 MEMB     29       POPC     C2       CTL1     0.170000       12.0110           0
      3781 MEMB     29       POPC     HS       HAL1     0.900000E-01   1.00800           0
      3782 MEMB     29       POPC     O21      OSL     -0.490000       15.9994           0
      3783 MEMB     29       POPC     C21      CL       0.900000       12.0110           0
      3784 MEMB     29       POPC     O22      OBL     -0.630000       15.9994           0
      3785 MEMB     29       POPC     C22      CTL2    -0.220000       12.0110           0
      3786 MEMB     29       POPC     H2R      HAL2     0.900000E-01   1.00800           0
      3787 MEMB     29       POPC     H2S      HAL2     0.900000E-01   1.00800           0
      3788 MEMB     29       POPC     C3       CTL2     0.800000E-01   12.0110           0
      3789 MEMB     29       POPC     HX       HAL2     0.900000E-01   1.00800           0
      3790 MEMB     29       POPC     HY       HAL2     0.900000E-01   1.00800           0
      3791 MEMB     29       POPC     O31      OSL     -0.490000       15.9994           0
      3792 MEMB     29       POPC     C31      CL       0.900000       12.0110           0
      3793 MEMB     29       POPC     O32      OBL     -0.630000       15.9994           0
      3794 MEMB     29       POPC     C32      CTL2    -0.220000       12.0110           0
      3795 MEMB     29       POPC     H2X      HAL2     0.900000E-01   1.00800           0
      3796 MEMB     29       POPC     H2Y      HAL2     0.900000E-01   1.00800           0
      3797 MEMB     29       POPC     C23      CTL2    -0.180000       12.0110           0
      3798 MEMB     29       POPC     H3R      HAL2     0.900000E-01   1.00800           0
      3799 MEMB     29       POPC     H3S      HAL2     0.900000E-01   1.00800           0
      3800 MEMB     29       POPC     C24      CTL2    -0.180000       12.0110           0
      3801 MEMB     29       POPC     H4R      HAL2     0.900000E-01   1.00800           0
      3802 MEMB     29       POPC     H4S      HAL2     0.900000E-01   1.00800           0
      3803 MEMB     29       POPC     C25      CTL2    -0.180000       12.0110           0
      3804 MEMB     29       POPC     H5R      HAL2     0.900000E-01   1.00800           0
      3805 MEMB     29       POPC     H5S      HAL2     0.900000E-01   1.00800           0
      3806 MEMB     29       POPC     C26      CTL2    -0.180000       12.0110           0
      3807 MEMB     29       POPC     H6R      HAL2     0.900000E-01   1.00800           0
      3808 MEMB     29       POPC     H6S      HAL2     0.900000E-01   1.00800           0
      3809 MEMB     29       POPC     C27      CTL2    -0.180000       12.0110           0
      3810 MEMB     29       POPC     H7R      HAL2     0.900000E-01   1.00800           0
      3811 MEMB     29       POPC     H7S      HAL2     0.900000E-01   1.00800           0
      3812 MEMB     29       POPC     C28      CTL2    -0.180000       12.0110           0
      3813 MEMB     29       POPC     H8R      HAL2     0.900000E-01   1.00800           0
      3814 MEMB     29       POPC     H8S      HAL2     0.900000E-01   1.00800           0
      3815 MEMB     29       POPC     C29      CEL1    -0.150000       12.0110           0
      3816 MEMB     29       POPC     H91      HEL1     0.150000       1.00800           0
      3817 MEMB     29       POPC     C210     CEL1    -0.150000       12.0110           0
      3818 MEMB     29       POPC     H101     HEL1     0.150000       1.00800           0
      3819 MEMB     29       POPC     C211     CTL2    -0.180000       12.0110           0
      3820 MEMB     29       POPC     H11R     HAL2     0.900000E-01   1.00800           0
      3821 MEMB     29       POPC     H11S     HAL2     0.900000E-01   1.00800           0
      3822 MEMB     29       POPC     C212     CTL2    -0.180000       12.0110           0
      3823 MEMB     29       POPC     H12R     HAL2     0.900000E-01   1.00800           0
      3824 MEMB     29       POPC     H12S     HAL2     0.900000E-01   1.00800           0
      3825 MEMB     29       POPC     C213     CTL2    -0.180000       12.0110           0
      3826 MEMB     29       POPC     H13R     HAL2     0.900000E-01   1.00800           0
      3827 MEMB     29       POPC     H13S     HAL2     0.900000E-01   1.00800           0
      3828 MEMB     29       POPC     C214     CTL2    -0.180000       12.0110           0
      3829 MEMB     29       POPC     H14R     HAL2     0.900000E-01   1.00800           0
      3830 MEMB     29       POPC     H14S     HAL2     0.900000E-01   1.00800           0
      3831 MEMB     29       POPC     C215     CTL2    -0.180000       12.0110           0
      3832 MEMB     29       POPC     H15R     HAL2     0.900000E-01   1.00800           0
      3833 MEMB     29       POPC     H15S     HAL2     0.900000E-01   1.00800           0
      3834 MEMB     29       POPC     C216     CTL2    -0.180000       12.0110           0
      3835 MEMB     29       POPC     H16R     HAL2     0.900000E-01   1.00800           0
      3836 MEMB     29       POPC     H16S     HAL2     0.900000E-01   1.00800           0
      3837 MEMB     29       POPC     C217     CTL2    -0.180000       12.0110           0
      3838 MEMB     29       POPC     H17R     HAL2     0.900000E-01   1.00800           0
      3839 MEMB     29       POPC     H17S     HAL2     0.900000E-01   1.00800           0
      3840 MEMB     29       POPC     C218     CTL3    -0.270000       12.0110           0
      3841 MEMB     29       POPC     H18R     HAL3     0.900000E-01   1.00800           0
      3842 MEMB     29       POPC     H18S     HAL3     0.900000E-01   1.00800           0
      3843 MEMB     29       POPC     H18T     HAL3     0.900000E-01   1.00800           0
      3844 MEMB     29       POPC     C33      CTL2    -0.180000       12.0110           0
      3845 MEMB     29       POPC     H3X      HAL2     0.900000E-01   1.00800           0
      3846 MEMB     29       POPC     H3Y      HAL2     0.900000E-01   1.00800           0
      3847 MEMB     29       POPC     C34      CTL2    -0.180000       12.0110           0
      3848 MEMB     29       POPC     H4X      HAL2     0.900000E-01   1.00800           0
      3849 MEMB     29       POPC     H4Y      HAL2     0.900000E-01   1.00800           0
      3850 MEMB     29       POPC     C35      CTL2    -0.180000       12.0110           0
      3851 MEMB     29       POPC     H5X      HAL2     0.900000E-01   1.00800           0
      3852 MEMB     29       POPC     H5Y      HAL2     0.900000E-01   1.00800           0
      3853 MEMB     29       POPC     C36      CTL2    -0.180000       12.0110           0
      3854 MEMB     29       POPC     H6X      HAL2     0.900000E-01   1.00800           0
      3855 MEMB     29       POPC     H6Y      HAL2     0.900000E-01   1.00800           0
      3856 MEMB     29       POPC     C37      CTL2    -0.180000       12.0110           0
      3857 MEMB     29       POPC     H7X      HAL2     0.900000E-01   1.00800           0
      3858 MEMB     29       POPC     H7Y      HAL2     0.900000E-01   1.00800           0
      3859 MEMB     29       POPC     C38      CTL2    -0.180000       12.0110           0
      3860 MEMB     29       POPC     H8X      HAL2     0.900000E-01   1.00800           0
      3861 MEMB     29       POPC     H8Y      HAL2     0.900000E-01   1.00800           0
      3862 MEMB     29       POPC     C39      CTL2    -0.180000       12.0110           0
      3863 MEMB     29       POPC     H9X      HAL2     0.900000E-01   1.00800           0
      3864 MEMB     29       POPC     H9Y      HAL2     0.900000E-01   1.00800           0
      3865 MEMB     29       POPC     C310     CTL2    -0.180000       12.0110           0
      3866 MEMB     29       POPC     H10X     HAL2     0.900000E-01   1.00800           0
      3867 MEMB     29       POPC     H10Y     HAL2     0.900000E-01   1.00800           0
      3868 MEMB     29       POPC     C311     CTL2    -0.180000       12.0110           0
      3869 MEMB     29       POPC     H11X     HAL2     0.900000E-01   1.00800           0
      3870 MEMB     29       POPC     H11Y     HAL2     0.900000E-01   1.00800           0
      3871 MEMB     29       POPC     C312     CTL2    -0.180000       12.0110           0
      3872 MEMB     29       POPC     H12X     HAL2     0.900000E-01   1.00800           0
      3873 MEMB     29       POPC     H12Y     HAL2     0.900000E-01   1.00800           0
      3874 MEMB     29       POPC     C313     CTL2    -0.180000       12.0110           0
      3875 MEMB     29       POPC     H13X     HAL2     0.900000E-01   1.00800           0
      3876 MEMB     29       POPC     H13Y     HAL2     0.900000E-01   1.00800           0
      3877 MEMB     29       POPC     C314     CTL2    -0.180000       12.0110           0
      3878 MEMB     29       POPC     H14X     HAL2     0.900000E-01   1.00800           0
      3879 MEMB     29       POPC     H14Y     HAL2     0.900000E-01   1.00800           0
      3880 MEMB     29       POPC     C315     CTL2    -0.180000       12.0110           0
      3881 MEMB     29       POPC     H15X     HAL2     0.900000E-01   1.00800           0
      3882 MEMB     29       POPC     H15Y     HAL2     0.900000E-01   1.00800           0
      3883 MEMB     29       POPC     C316     CTL3    -0.270000       12.0110           0
      3884 MEMB     29       POPC     H16X     HAL3     0.900000E-01   1.00800           0
      3885 MEMB     29       POPC     H16Y     HAL3     0.900000E-01   1.00800           0
      3886 MEMB     29       POPC     H16Z     HAL3     0.900000E-01   1.00800           0
      3887 MEMB     30       POPC     N        NTL     -0.600000       14.0070           0
      3888 MEMB     30       POPC     C12      CTL2    -0.100000       12.0110           0
      3889 MEMB     30       POPC     H12A     HL       0.250000       1.00800           0
      3890 MEMB     30       POPC     H12B     HL       0.250000       1.00800           0
      3891 MEMB     30       POPC     C13      CTL5    -0.350000       12.0110           0
      3892 MEMB     30       POPC     H13A     HL       0.250000       1.00800           0
      3893 MEMB     30       POPC     H13B     HL       0.250000       1.00800           0
      3894 MEMB     30       POPC     H13C     HL       0.250000       1.00800           0
      3895 MEMB     30       POPC     C14      CTL5    -0.350000       12.0110           0
      3896 MEMB     30       POPC     H14A     HL       0.250000       1.00800           0
      3897 MEMB     30       POPC     H14B     HL       0.250000       1.00800           0
      3898 MEMB     30       POPC     H14C     HL       0.250000       1.00800           0
      3899 MEMB     30       POPC     C15      CTL5    -0.350000       12.0110           0
      3900 MEMB     30       POPC     H15A     HL       0.250000       1.00800           0
      3901 MEMB     30       POPC     H15B     HL       0.250000       1.00800           0
      3902 MEMB     30       POPC     H15C     HL       0.250000       1.00800           0
      3903 MEMB     30       POPC     C11      CTL2    -0.800000E-01   12.0110           0
      3904 MEMB     30       POPC     H11A     HAL2     0.900000E-01   1.00800           0
      3905 MEMB     30       POPC     H11B     HAL2     0.900000E-01   1.00800           0
      3906 MEMB     30       POPC     P        PL        1.50000       30.9740           0
      3907 MEMB     30       POPC     O13      O2L     -0.780000       15.9994           0
      3908 MEMB     30       POPC     O14      O2L     -0.780000       15.9994           0
      3909 MEMB     30       POPC     O12      OSLP    -0.570000       15.9994           0
      3910 MEMB     30       POPC     O11      OSLP    -0.570000       15.9994           0
      3911 MEMB     30       POPC     C1       CTL2    -0.800000E-01   12.0110           0
      3912 MEMB     30       POPC     HA       HAL2     0.900000E-01   1.00800           0
      3913 MEMB     30       POPC     HB       HAL2     0.900000E-01   1.00800           0
      3914 MEMB     30       POPC     C2       CTL1     0.170000       12.0110           0
      3915 MEMB     30       POPC     HS       HAL1     0.900000E-01   1.00800           0
      3916 MEMB     30       POPC     O21      OSL     -0.490000       15.9994           0
      3917 MEMB     30       POPC     C21      CL       0.900000       12.0110           0
      3918 MEMB     30       POPC     O22      OBL     -0.630000       15.9994           0
      3919 MEMB     30       POPC     C22      CTL2    -0.220000       12.0110           0
      3920 MEMB     30       POPC     H2R      HAL2     0.900000E-01   1.00800           0
      3921 MEMB     30       POPC     H2S      HAL2     0.900000E-01   1.00800           0
      3922 MEMB     30       POPC     C3       CTL2     0.800000E-01   12.0110           0
      3923 MEMB     30       POPC     HX       HAL2     0.900000E-01   1.00800           0
      3924 MEMB     30       POPC     HY       HAL2     0.900000E-01   1.00800           0
      3925 MEMB     30       POPC     O31      OSL     -0.490000       15.9994           0
      3926 MEMB     30       POPC     C31      CL       0.900000       12.0110           0
      3927 MEMB     30       POPC     O32      OBL     -0.630000       15.9994           0
      3928 MEMB     30       POPC     C32      CTL2    -0.220000       12.0110           0
      3929 MEMB     30       POPC     H2X      HAL2     0.900000E-01   1.00800           0
      3930 MEMB     30       POPC     H2Y      HAL2     0.900000E-01   1.00800           0
      3931 MEMB     30       POPC     C23      CTL2    -0.180000       12.0110           0
      3932 MEMB     30       POPC     H3R      HAL2     0.900000E-01   1.00800           0
      3933 MEMB     30       POPC     H3S      HAL2     0.900000E-01   1.00800           0
      3934 MEMB     30       POPC     C24      CTL2    -0.180000       12.0110           0
      3935 MEMB     30       POPC     H4R      HAL2     0.900000E-01   1.00800           0
      3936 MEMB     30       POPC     H4S      HAL2     0.900000E-01   1.00800           0
      3937 MEMB     30       POPC     C25      CTL2    -0.180000       12.0110           0
      3938 MEMB     30       POPC     H5R      HAL2     0.900000E-01   1.00800           0
      3939 MEMB     30       POPC     H5S      HAL2     0.900000E-01   1.00800           0
      3940 MEMB     30       POPC     C26      CTL2    -0.180000       12.0110           0
      3941 MEMB     30       POPC     H6R      HAL2     0.900000E-01   1.00800           0
      3942 MEMB     30       POPC     H6S      HAL2     0.900000E-01   1.00800           0
      3943 MEMB     30       POPC     C27      CTL2    -0.180000       12.0110           0
      3944 MEMB     30       POPC     H7R      HAL2     0.900000E-01   1.00800           0
      3945 MEMB     30       POPC     H7S      HAL2     0.900000E-01   1.00800           0
      3946 MEMB     30       POPC     C28      CTL2    -0.180000       12.0110           0
      3947 MEMB     30       POPC     H8R      HAL2     0.900000E-01   1.00800           0
      3948 MEMB     30       POPC     H8S      HAL2     0.900000E-01   1.00800           0
      3949 MEMB     30       POPC     C29      CEL1    -0.150000       12.0110           0
      3950 MEMB     30       POPC     H91      HEL1     0.150000       1.00800           0
      3951 MEMB     30       POPC     C210     CEL1    -0.150000       12.0110           0
      3952 MEMB     30       POPC     H101     HEL1     0.150000       1.00800           0
      3953 MEMB     30       POPC     C211     CTL2    -0.180000       12.0110           0
      3954 MEMB     30       POPC     H11R     HAL2     0.900000E-01   1.00800           0
      3955 MEMB     30       POPC     H11S     HAL2     0.900000E-01   1.00800           0
      3956 MEMB     30       POPC     C212     CTL2    -0.180000       12.0110           0
      3957 MEMB     30       POPC     H12R     HAL2     0.900000E-01   1.00800           0
      3958 MEMB     30       POPC     H12S     HAL2     0.900000E-01   1.00800           0
      3959 MEMB     30       POPC     C213     CTL2    -0.180000       12.0110           0
      3960 MEMB     30       POPC     H13R     HAL2     0.900000E-01   1.00800           0
      3961 MEMB     30       POPC     H13S     HAL2     0.900000E-01   1.00800           0
      3962 MEMB     30       POPC     C214     CTL2    -0.180000       12.0110           0
      3963 MEMB     30       POPC     H14R     HAL2     0.900000E-01   1.00800           0
      3964 MEMB     30       POPC     H14S     HAL2     0.900000E-01   1.00800           0
      3965 MEMB     30       POPC     C215     CTL2    -0.180000       12.0110           0
      3966 MEMB     30       POPC     H15R     HAL2     0.900000E-01   1.00800           0
      3967 MEMB     30       POPC     H15S     HAL2     0.900000E-01   1.00800           0
      3968 MEMB     30       POPC     C216     CTL2    -0.180000       12.0110           0
      3969 MEMB     30       POPC     H16R     HAL2     0.900000E-01   1.00800           0
      3970 MEMB     30       POPC     H16S     HAL2     0.900000E-01   1.00800           0
      3971 MEMB     30       POPC     C217     CTL2    -0.180000       12.0110           0
      3972 MEMB     30       POPC     H17R     HAL2     0.900000E-01   1.00800           0
      3973 MEMB     30       POPC     H17S     HAL2     0.900000E-01   1.00800           0
      3974 MEMB     30       POPC     C218     CTL3    -0.270000       12.0110           0
      3975 MEMB     30       POPC     H18R     HAL3     0.900000E-01   1.00800           0
      3976 MEMB     30       POPC     H18S     HAL3     0.900000E-01   1.00800           0
      3977 MEMB     30       POPC     H18T     HAL3     0.900000E-01   1.00800           0
      3978 MEMB     30       POPC     C33      CTL2    -0.180000       12.0110           0
      3979 MEMB     30       POPC     H3X      HAL2     0.900000E-01   1.00800           0
      3980 MEMB     30       POPC     H3Y      HAL2     0.900000E-01   1.00800           0
      3981 MEMB     30       POPC     C34      CTL2    -0.180000       12.0110           0
      3982 MEMB     30       POPC     H4X      HAL2     0.900000E-01   1.00800           0
      3983 MEMB     30       POPC     H4Y      HAL2     0.900000E-01   1.00800           0
      3984 MEMB     30       POPC     C35      CTL2    -0.180000       12.0110           0
      3985 MEMB     30       POPC     H5X      HAL2     0.900000E-01   1.00800           0
      3986 MEMB     30       POPC     H5Y      HAL2     0.900000E-01   1.00800           0
      3987 MEMB     30       POPC     C36      CTL2    -0.180000       12.0110           0
      3988 MEMB     30       POPC     H6X      HAL2     0.900000E-01   1.00800           0
      3989 MEMB     30       POPC     H6Y      HAL2     0.900000E-01   1.00800           0
      3990 MEMB     30       POPC     C37      CTL2    -0.180000       12.0110           0
      3991 MEMB     30       POPC     H7X      HAL2     0.900000E-01   1.00800           0
      3992 MEMB     30       POPC     H7Y      HAL2     0.900000E-01   1.00800           0
      3993 MEMB     30       POPC     C38      CTL2    -0.180000       12.0110           0
      3994 MEMB     30       POPC     H8X      HAL2     0.900000E-01   1.00800           0
      3995 MEMB     30       POPC     H8Y      HAL2     0.900000E-01   1.00800           0
      3996 MEMB     30       POPC     C39      CTL2    -0.180000       12.0110           0
      3997 MEMB     30       POPC     H9X      HAL2     0.900000E-01   1.00800           0
      3998 MEMB     30       POPC     H9Y      HAL2     0.900000E-01   1.00800           0
      3999 MEMB     30       POPC     C310     CTL2    -0.180000       12.0110           0
      4000 MEMB     30       POPC     H10X     HAL2     0.900000E-01   1.00800           0
      4001 MEMB     30       POPC     H10Y     HAL2     0.900000E-01   1.00800           0
      4002 MEMB     30       POPC     C311     CTL2    -0.180000       12.0110           0
      4003 MEMB     30       POPC     H11X     HAL2     0.900000E-01   1.00800           0
      4004 MEMB     30       POPC     H11Y     HAL2     0.900000E-01   1.00800           0
      4005 MEMB     30       POPC     C312     CTL2    -0.180000       12.0110           0
      4006 MEMB     30       POPC     H12X     HAL2     0.900000E-01   1.00800           0
      4007 MEMB     30       POPC     H12Y     HAL2     0.900000E-01   1.00800           0
      4008 MEMB     30       POPC     C313     CTL2    -0.180000       12.0110           0
      4009 MEMB     30       POPC     H13X     HAL2     0.900000E-01   1.00800           0
      4010 MEMB     30       POPC     H13Y     HAL2     0.900000E-01   1.00800           0
      4011 MEMB     30       POPC     C314     CTL2    -0.180000       12.0110           0
      4012 MEMB     30       POPC     H14X     HAL2     0.900000E-01   1.00800           0
      4013 MEMB     30       POPC     H14Y     HAL2     0.900000E-01   1.00800           0
      4014 MEMB     30       POPC     C315     CTL2    -0.180000       12.0110           0
      4015 MEMB     30       POPC     H15X     HAL2     0.900000E-01   1.00800           0
      4016 MEMB     30       POPC     H15Y     HAL2     0.900000E-01   1.00800           0
      4017 MEMB     30       POPC     C316     CTL3    -0.270000       12.0110           0
      4018 MEMB     30       POPC     H16X     HAL3     0.900000E-01   1.00800           0
      4019 MEMB     30       POPC     H16Y     HAL3     0.900000E-01   1.00800           0
      4020 MEMB     30       POPC     H16Z     HAL3     0.900000E-01   1.00800           0
      4021 MEMB     31       POPC     N        NTL     -0.600000       14.0070           0
      4022 MEMB     31       POPC     C12      CTL2    -0.100000       12.0110           0
      4023 MEMB     31       POPC     H12A     HL       0.250000       1.00800           0
      4024 MEMB     31       POPC     H12B     HL       0.250000       1.00800           0
      4025 MEMB     31       POPC     C13      CTL5    -0.350000       12.0110           0
      4026 MEMB     31       POPC     H13A     HL       0.250000       1.00800           0
      4027 MEMB     31       POPC     H13B     HL       0.250000       1.00800           0
      4028 MEMB     31       POPC     H13C     HL       0.250000       1.00800           0
      4029 MEMB     31       POPC     C14      CTL5    -0.350000       12.0110           0
      4030 MEMB     31       POPC     H14A     HL       0.250000       1.00800           0
      4031 MEMB     31       POPC     H14B     HL       0.250000       1.00800           0
      4032 MEMB     31       POPC     H14C     HL       0.250000       1.00800           0
      4033 MEMB     31       POPC     C15      CTL5    -0.350000       12.0110           0
      4034 MEMB     31       POPC     H15A     HL       0.250000       1.00800           0
      4035 MEMB     31       POPC     H15B     HL       0.250000       1.00800           0
      4036 MEMB     31       POPC     H15C     HL       0.250000       1.00800           0
      4037 MEMB     31       POPC     C11      CTL2    -0.800000E-01   12.0110           0
      4038 MEMB     31       POPC     H11A     HAL2     0.900000E-01   1.00800           0
      4039 MEMB     31       POPC     H11B     HAL2     0.900000E-01   1.00800           0
      4040 MEMB     31       POPC     P        PL        1.50000       30.9740           0
      4041 MEMB     31       POPC     O13      O2L     -0.780000       15.9994           0
      4042 MEMB     31       POPC     O14      O2L     -0.780000       15.9994           0
      4043 MEMB     31       POPC     O12      OSLP    -0.570000       15.9994           0
      4044 MEMB     31       POPC     O11      OSLP    -0.570000       15.9994           0
      4045 MEMB     31       POPC     C1       CTL2    -0.800000E-01   12.0110           0
      4046 MEMB     31       POPC     HA       HAL2     0.900000E-01   1.00800           0
      4047 MEMB     31       POPC     HB       HAL2     0.900000E-01   1.00800           0
      4048 MEMB     31       POPC     C2       CTL1     0.170000       12.0110           0
      4049 MEMB     31       POPC     HS       HAL1     0.900000E-01   1.00800           0
      4050 MEMB     31       POPC     O21      OSL     -0.490000       15.9994           0
      4051 MEMB     31       POPC     C21      CL       0.900000       12.0110           0
      4052 MEMB     31       POPC     O22      OBL     -0.630000       15.9994           0
      4053 MEMB     31       POPC     C22      CTL2    -0.220000       12.0110           0
      4054 MEMB     31       POPC     H2R      HAL2     0.900000E-01   1.00800           0
      4055 MEMB     31       POPC     H2S      HAL2     0.900000E-01   1.00800           0
      4056 MEMB     31       POPC     C3       CTL2     0.800000E-01   12.0110           0
      4057 MEMB     31       POPC     HX       HAL2     0.900000E-01   1.00800           0
      4058 MEMB     31       POPC     HY       HAL2     0.900000E-01   1.00800           0
      4059 MEMB     31       POPC     O31      OSL     -0.490000       15.9994           0
      4060 MEMB     31       POPC     C31      CL       0.900000       12.0110           0
      4061 MEMB     31       POPC     O32      OBL     -0.630000       15.9994           0
      4062 MEMB     31       POPC     C32      CTL2    -0.220000       12.0110           0
      4063 MEMB     31       POPC     H2X      HAL2     0.900000E-01   1.00800           0
      4064 MEMB     31       POPC     H2Y      HAL2     0.900000E-01   1.00800           0
      4065 MEMB     31       POPC     C23      CTL2    -0.180000       12.0110           0
      4066 MEMB     31       POPC     H3R      HAL2     0.900000E-01   1.00800           0
      4067 MEMB     31       POPC     H3S      HAL2     0.900000E-01   1.00800           0
      4068 MEMB     31       POPC     C24      CTL2    -0.180000       12.0110           0
      4069 MEMB     31       POPC     H4R      HAL2     0.900000E-01   1.00800           0
      4070 MEMB     31       POPC     H4S      HAL2     0.900000E-01   1.00800           0
      4071 MEMB     31       POPC     C25      CTL2    -0.180000       12.0110           0
      4072 MEMB     31       POPC     H5R      HAL2     0.900000E-01   1.00800           0
      4073 MEMB     31       POPC     H5S      HAL2     0.900000E-01   1.00800           0
      4074 MEMB     31       POPC     C26      CTL2    -0.180000       12.0110           0
      4075 MEMB     31       POPC     H6R      HAL2     0.900000E-01   1.00800           0
      4076 MEMB     31       POPC     H6S      HAL2     0.900000E-01   1.00800           0
      4077 MEMB     31       POPC     C27      CTL2    -0.180000       12.0110           0
      4078 MEMB     31       POPC     H7R      HAL2     0.900000E-01   1.00800           0
      4079 MEMB     31       POPC     H7S      HAL2     0.900000E-01   1.00800           0
      4080 MEMB     31       POPC     C28      CTL2    -0.180000       12.0110           0
      4081 MEMB     31       POPC     H8R      HAL2     0.900000E-01   1.00800           0
      4082 MEMB     31       POPC     H8S      HAL2     0.900000E-01   1.00800           0
      4083 MEMB     31       POPC     C29      CEL1    -0.150000       12.0110           0
      4084 MEMB     31       POPC     H91      HEL1     0.150000       1.00800           0
      4085 MEMB     31       POPC     C210     CEL1    -0.150000       12.0110           0
      4086 MEMB     31       POPC     H101     HEL1     0.150000       1.00800           0
      4087 MEMB     31       POPC     C211     CTL2    -0.180000       12.0110           0
      4088 MEMB     31       POPC     H11R     HAL2     0.900000E-01   1.00800           0
      4089 MEMB     31       POPC     H11S     HAL2     0.900000E-01   1.00800           0
      4090 MEMB     31       POPC     C212     CTL2    -0.180000       12.0110           0
      4091 MEMB     31       POPC     H12R     HAL2     0.900000E-01   1.00800           0
      4092 MEMB     31       POPC     H12S     HAL2     0.900000E-01   1.00800           0
      4093 MEMB     31       POPC     C213     CTL2    -0.180000       12.0110           0
      4094 MEMB     31       POPC     H13R     HAL2     0.900000E-01   1.00800           0
      4095 MEMB     31       POPC     H13S     HAL2     0.900000E-01   1.00800           0
      4096 MEMB     31       POPC     C214     CTL2    -0.180000       12.0110           0
      4097 MEMB     31       POPC     H14R     HAL2     0.900000E-01   1.00800           0
      4098 MEMB     31       POPC     H14S     HAL2     0.900000E-01   1.00800           0
      4099 MEMB     31       POPC     C215     CTL2    -0.180000       12.0110           0
      4100 MEMB     31       POPC     H15R     HAL2     0.900000E-01   1.00800           0
      4101 MEMB     31       POPC     H15S     HAL2     0.900000E-01   1.00800           0
      4102 MEMB     31       POPC     C216     CTL2    -0.180000       12.0110           0
      4103 MEMB     31       POPC     H16R     HAL2     0.900000E-01   1.00800           0
      4104 MEMB     31       POPC     H16S     HAL2     0.900000E-01   1.00800           0
      4105 MEMB     31       POPC     C217     CTL2    -0.180000       12.0110           0
      4106 MEMB     31       POPC     H17R     HAL2     0.900000E-01   1.00800           0
      4107 MEMB     31       POPC     H17S     HAL2     0.900000E-01   1.00800           0
      4108 MEMB     31       POPC     C218     CTL3    -0.270000       12.0110           0
      4109 MEMB     31       POPC     H18R     HAL3     0.900000E-01   1.00800           0
      4110 MEMB     31       POPC     H18S     HAL3     0.900000E-01   1.00800           0
      4111 MEMB     31       POPC     H18T     HAL3     0.900000E-01   1.00800           0
      4112 MEMB     31       POPC     C33      CTL2    -0.180000       12.0110           0
      4113 MEMB     31       POPC     H3X      HAL2     0.900000E-01   1.00800           0
      4114 MEMB     31       POPC     H3Y      HAL2     0.900000E-01   1.00800           0
      4115 MEMB     31       POPC     C34      CTL2    -0.180000       12.0110           0
      4116 MEMB     31       POPC     H4X      HAL2     0.900000E-01   1.00800           0
      4117 MEMB     31       POPC     H4Y      HAL2     0.900000E-01   1.00800           0
      4118 MEMB     31       POPC     C35      CTL2    -0.180000       12.0110           0
      4119 MEMB     31       POPC     H5X      HAL2     0.900000E-01   1.00800           0
      4120 MEMB     31       POPC     H5Y      HAL2     0.900000E-01   1.00800           0
      4121 MEMB     31       POPC     C36      CTL2    -0.180000       12.0110           0
      4122 MEMB     31       POPC     H6X      HAL2     0.900000E-01   1.00800           0
      4123 MEMB     31       POPC     H6Y      HAL2     0.900000E-01   1.00800           0
      4124 MEMB     31       POPC     C37      CTL2    -0.180000       12.0110           0
      4125 MEMB     31       POPC     H7X      HAL2     0.900000E-01   1.00800           0
      4126 MEMB     31       POPC     H7Y      HAL2     0.900000E-01   1.00800           0
      4127 MEMB     31       POPC     C38      CTL2    -0.180000       12.0110           0
      4128 MEMB     31       POPC     H8X      HAL2     0.900000E-01   1.00800           0
      4129 MEMB     31       POPC     H8Y      HAL2     0.900000E-01   1.00800           0
      4130 MEMB     31       POPC     C39      CTL2    -0.180000       12.0110           0
      4131 MEMB     31       POPC     H9X      HAL2     0.900000E-01   1.00800           0
      4132 MEMB     31       POPC     H9Y      HAL2     0.900000E-01   1.00800           0
      4133 MEMB     31       POPC     C310     CTL2    -0.180000       12.0110           0
      4134 MEMB     31       POPC     H10X     HAL2     0.900000E-01   1.00800           0
      4135 MEMB     31       POPC     H10Y     HAL2     0.900000E-01   1.00800           0
      4136 MEMB     31       POPC     C311     CTL2    -0.180000       12.0110           0
      4137 MEMB     31       POPC     H11X     HAL2     0.900000E-01   1.00800           0
      4138 MEMB     31       POPC     H11Y     HAL2     0.900000E-01   1.00800           0
      4139 MEMB     31       POPC     C312     CTL2    -0.180000       12.0110           0
      4140 MEMB     31       POPC     H12X     HAL2     0.900000E-01   1.00800           0
      4141 MEMB     31       POPC     H12Y     HAL2     0.900000E-01   1.00800           0
      4142 MEMB     31       POPC     C313     CTL2    -0.180000       12.0110           0
      4143 MEMB     31       POPC     H13X     HAL2     0.900000E-01   1.00800           0
      4144 MEMB     31       POPC     H13Y     HAL2     0.900000E-01   1.00800           0
      4145 MEMB     31       POPC     C314     CTL2    -0.180000       12.0110           0
      4146 MEMB     31       POPC     H14X     HAL2     0.900000E-01   1.00800           0
      4147 MEMB     31       POPC     H14Y     HAL2     0.900000E-01   1.00800           0
      4148 MEMB     31       POPC     C315     CTL2    -0.180000       12.0110           0
      4149 MEMB     31       POPC     H15X     HAL2     0.900000E-01   1.00800           0
      4150 MEMB     31       POPC     H15Y     HAL2     0.900000E-01   1.00800           0
      4151 MEMB     31       POPC     C316     CTL3    -0.270000       12.0110           0
      4152 MEMB     31       POPC     H16X     HAL3     0.900000E-01   1.00800           0
      4153 MEMB     31       POPC     H16Y     HAL3     0.900000E-01   1.00800           0
      4154 MEMB     31       POPC     H16Z     HAL3     0.900000E-01   1.00800           0
      4155 MEMB     32       POPC     N        NTL     -0.600000       14.0070           0
      4156 MEMB     32       POPC     C12      CTL2    -0.100000       12.0110           0
      4157 MEMB     32       POPC     H12A     HL       0.250000       1.00800           0
      4158 MEMB     32       POPC     H12B     HL       0.250000       1.00800           0
      4159 MEMB     32       POPC     C13      CTL5    -0.350000       12.0110           0
      4160 MEMB     32       POPC     H13A     HL       0.250000       1.00800           0
      4161 MEMB     32       POPC     H13B     HL       0.250000       1.00800           0
      4162 MEMB     32       POPC     H13C     HL       0.250000       1.00800           0
      4163 MEMB     32       POPC     C14      CTL5    -0.350000       12.0110           0
      4164 MEMB     32       POPC     H14A     HL       0.250000       1.00800           0
      4165 MEMB     32       POPC     H14B     HL       0.250000       1.00800           0
      4166 MEMB     32       POPC     H14C     HL       0.250000       1.00800           0
      4167 MEMB     32       POPC     C15      CTL5    -0.350000       12.0110           0
      4168 MEMB     32       POPC     H15A     HL       0.250000       1.00800           0
      4169 MEMB     32       POPC     H15B     HL       0.250000       1.00800           0
      4170 MEMB     32       POPC     H15C     HL       0.250000       1.00800           0
      4171 MEMB     32       POPC     C11      CTL2    -0.800000E-01   12.0110           0
      4172 MEMB     32       POPC     H11A     HAL2     0.900000E-01   1.00800           0
      4173 MEMB     32       POPC     H11B     HAL2     0.900000E-01   1.00800           0
      4174 MEMB     32       POPC     P        PL        1.50000       30.9740           0
      4175 MEMB     32       POPC     O13      O2L     -0.780000       15.9994           0
      4176 MEMB     32       POPC     O14      O2L     -0.780000       15.9994           0
      4177 MEMB     32       POPC     O12      OSLP    -0.570000       15.9994           0
      4178 MEMB     32       POPC     O11      OSLP    -0.570000       15.9994           0
      4179 MEMB     32       POPC     C1       CTL2    -0.800000E-01   12.0110           0
      4180 MEMB     32       POPC     HA       HAL2     0.900000E-01   1.00800           0
      4181 MEMB     32       POPC     HB       HAL2     0.900000E-01   1.00800           0
      4182 MEMB     32       POPC     C2       CTL1     0.170000       12.0110           0
      4183 MEMB     32       POPC     HS       HAL1     0.900000E-01   1.00800           0
      4184 MEMB     32       POPC     O21      OSL     -0.490000       15.9994           0
      4185 MEMB     32       POPC     C21      CL       0.900000       12.0110           0
      4186 MEMB     32       POPC     O22      OBL     -0.630000       15.9994           0
      4187 MEMB     32       POPC     C22      CTL2    -0.220000       12.0110           0
      4188 MEMB     32       POPC     H2R      HAL2     0.900000E-01   1.00800           0
      4189 MEMB     32       POPC     H2S      HAL2     0.900000E-01   1.00800           0
      4190 MEMB     32       POPC     C3       CTL2     0.800000E-01   12.0110           0
      4191 MEMB     32       POPC     HX       HAL2     0.900000E-01   1.00800           0
      4192 MEMB     32       POPC     HY       HAL2     0.900000E-01   1.00800           0
      4193 MEMB     32       POPC     O31      OSL     -0.490000       15.9994           0
      4194 MEMB     32       POPC     C31      CL       0.900000       12.0110           0
      4195 MEMB     32       POPC     O32      OBL     -0.630000       15.9994           0
      4196 MEMB     32       POPC     C32      CTL2    -0.220000       12.0110           0
      4197 MEMB     32       POPC     H2X      HAL2     0.900000E-01   1.00800           0
      4198 MEMB     32       POPC     H2Y      HAL2     0.900000E-01   1.00800           0
      4199 MEMB     32       POPC     C23      CTL2    -0.180000       12.0110           0
      4200 MEMB     32       POPC     H3R      HAL2     0.900000E-01   1.00800           0
      4201 MEMB     32       POPC     H3S      HAL2     0.900000E-01   1.00800           0
      4202 MEMB     32       POPC     C24      CTL2    -0.180000       12.0110           0
      4203 MEMB     32       POPC     H4R      HAL2     0.900000E-01   1.00800           0
      4204 MEMB     32       POPC     H4S      HAL2     0.900000E-01   1.00800           0
      4205 MEMB     32       POPC     C25      CTL2    -0.180000       12.0110           0
      4206 MEMB     32       POPC     H5R      HAL2     0.900000E-01   1.00800           0
      4207 MEMB     32       POPC     H5S      HAL2     0.900000E-01   1.00800           0
      4208 MEMB     32       POPC     C26      CTL2    -0.180000       12.0110           0
      4209 MEMB     32       POPC     H6R      HAL2     0.900000E-01   1.00800           0
      4210 MEMB     32       POPC     H6S      HAL2     0.900000E-01   1.00800           0
      4211 MEMB     32       POPC     C27      CTL2    -0.180000       12.0110           0
      4212 MEMB     32       POPC     H7R      HAL2     0.900000E-01   1.00800           0
      4213 MEMB     32       POPC     H7S      HAL2     0.900000E-01   1.00800           0
      4214 MEMB     32       POPC     C28      CTL2    -0.180000       12.0110           0
      4215 MEMB     32       POPC     H8R      HAL2     0.900000E-01   1.00800           0
      4216 MEMB     32       POPC     H8S      HAL2     0.900000E-01   1.00800           0
      4217 MEMB     32       POPC     C29      CEL1    -0.150000       12.0110           0
      4218 MEMB     32       POPC     H91      HEL1     0.150000       1.00800           0
      4219 MEMB     32       POPC     C210     CEL1    -0.150000       12.0110           0
      4220 MEMB     32       POPC     H101     HEL1     0.150000       1.00800           0
      4221 MEMB     32       POPC     C211     CTL2    -0.180000       12.0110           0
      4222 MEMB     32       POPC     H11R     HAL2     0.900000E-01   1.00800           0
      4223 MEMB     32       POPC     H11S     HAL2     0.900000E-01   1.00800           0
      4224 MEMB     32       POPC     C212     CTL2    -0.180000       12.0110           0
      4225 MEMB     32       POPC     H12R     HAL2     0.900000E-01   1.00800           0
      4226 MEMB     32       POPC     H12S     HAL2     0.900000E-01   1.00800           0
      4227 MEMB     32       POPC     C213     CTL2    -0.180000       12.0110           0
      4228 MEMB     32       POPC     H13R     HAL2     0.900000E-01   1.00800           0
      4229 MEMB     32       POPC     H13S     HAL2     0.900000E-01   1.00800           0
      4230 MEMB     32       POPC     C214     CTL2    -0.180000       12.0110           0
      4231 MEMB     32       POPC     H14R     HAL2     0.900000E-01   1.00800           0
      4232 MEMB     32       POPC     H14S     HAL2     0.900000E-01   1.00800           0
      4233 MEMB     32       POPC     C215     CTL2    -0.180000       12.0110           0
      4234 MEMB     32       POPC     H15R     HAL2     0.900000E-01   1.00800           0
      4235 MEMB     32       POPC     H15S     HAL2     0.900000E-01   1.00800           0
      4236 MEMB     32       POPC     C216     CTL2    -0.180000       12.0110           0
      4237 MEMB     32       POPC     H16R     HAL2     0.900000E-01   1.00800           0
      4238 MEMB     32       POPC     H16S     HAL2     0.900000E-01   1.00800           0
      4239 MEMB     32       POPC     C217     CTL2    -0.180000       12.0110           0
      4240 MEMB     32       POPC     H17R     HAL2     0.900000E-01   1.00800           0
      4241 MEMB     32       POPC     H17S     HAL2     0.900000E-01   1.00800           0
      4242 MEMB     32       POPC     C218     CTL3    -0.270000       12.0110           0
      4243 MEMB     32       POPC     H18R     HAL3     0.900000E-01   1.00800           0
      4244 MEMB     32       POPC     H18S     HAL3     0.900000E-01   1.00800           0
      4245 MEMB     32       POPC     H18T     HAL3     0.900000E-01   1.00800           0
      4246 MEMB     32       POPC     C33      CTL2    -0.180000       12.0110           0
      4247 MEMB     32       POPC     H3X      HAL2     0.900000E-01   1.00800           0
      4248 MEMB     32       POPC     H3Y      HAL2     0.900000E-01   1.00800           0
      4249 MEMB     32       POPC     C34      CTL2    -0.180000       12.0110           0
      4250 MEMB     32       POPC     H4X      HAL2     0.900000E-01   1.00800           0
      4251 MEMB     32       POPC     H4Y      HAL2     0.900000E-01   1.00800           0
      4252 MEMB     32       POPC     C35      CTL2    -0.180000       12.0110           0
      4253 MEMB     32       POPC     H5X      HAL2     0.900000E-01   1.00800           0
      4254 MEMB     32       POPC     H5Y      HAL2     0.900000E-01   1.00800           0
      4255 MEMB     32       POPC     C36      CTL2    -0.180000       12.0110           0
      4256 MEMB     32       POPC     H6X      HAL2     0.900000E-01   1.00800           0
      4257 MEMB     32       POPC     H6Y      HAL2     0.900000E-01   1.00800           0
      4258 MEMB     32       POPC     C37      CTL2    -0.180000       12.0110           0
      4259 MEMB     32       POPC     H7X      HAL2     0.900000E-01   1.00800           0
      4260 MEMB     32       POPC     H7Y      HAL2     0.900000E-01   1.00800           0
      4261 MEMB     32       POPC     C38      CTL2    -0.180000       12.0110           0
      4262 MEMB     32       POPC     H8X      HAL2     0.900000E-01   1.00800           0
      4263 MEMB     32       POPC     H8Y      HAL2     0.900000E-01   1.00800           0
      4264 MEMB     32       POPC     C39      CTL2    -0.180000       12.0110           0
      4265 MEMB     32       POPC     H9X      HAL2     0.900000E-01   1.00800           0
      4266 MEMB     32       POPC     H9Y      HAL2     0.900000E-01   1.00800           0
      4267 MEMB     32       POPC     C310     CTL2    -0.180000       12.0110           0
      4268 MEMB     32       POPC     H10X     HAL2     0.900000E-01   1.00800           0
      4269 MEMB     32       POPC     H10Y     HAL2     0.900000E-01   1.00800           0
      4270 MEMB     32       POPC     C311     CTL2    -0.180000       12.0110           0
      4271 MEMB     32       POPC     H11X     HAL2     0.900000E-01   1.00800           0
      4272 MEMB     32       POPC     H11Y     HAL2     0.900000E-01   1.00800           0
      4273 MEMB     32       POPC     C312     CTL2    -0.180000       12.0110           0
      4274 MEMB     32       POPC     H12X     HAL2     0.900000E-01   1.00800           0
      4275 MEMB     32       POPC     H12Y     HAL2     0.900000E-01   1.00800           0
      4276 MEMB     32       POPC     C313     CTL2    -0.180000       12.0110           0
      4277 MEMB     32       POPC     H13X     HAL2     0.900000E-01   1.00800           0
      4278 MEMB     32       POPC     H13Y     HAL2     0.900000E-01   1.00800           0
      4279 MEMB     32       POPC     C314     CTL2    -0.180000       12.0110           0
      4280 MEMB     32       POPC     H14X     HAL2     0.900000E-01   1.00800           0
      4281 MEMB     32       POPC     H14Y     HAL2     0.900000E-01   1.00800           0
      4282 MEMB     32       POPC     C315     CTL2    -0.180000       12.0110           0
      4283 MEMB     32       POPC     H15X     HAL2     0.900000E-01   1.00800           0
      4284 MEMB     32       POPC     H15Y     HAL2     0.900000E-01   1.00800           0
      4285 MEMB     32       POPC     C316     CTL3    -0.270000       12.0110           0
      4286 MEMB     32       POPC     H16X     HAL3     0.900000E-01   1.00800           0
      4287 MEMB     32       POPC     H16Y     HAL3     0.900000E-01   1.00800           0
      4288 MEMB     32       POPC     H16Z     HAL3     0.900000E-01   1.00800           0
      4289 MEMB     33       POPC     N        NTL     -0.600000       14.0070           0
      4290 MEMB     33       POPC     C12      CTL2    -0.100000       12.0110           0
      4291 MEMB     33       POPC     H12A     HL       0.250000       1.00800           0
      4292 MEMB     33       POPC     H12B     HL       0.250000       1.00800           0
      4293 MEMB     33       POPC     C13      CTL5    -0.350000       12.0110           0
      4294 MEMB     33       POPC     H13A     HL       0.250000       1.00800           0
      4295 MEMB     33       POPC     H13B     HL       0.250000       1.00800           0
      4296 MEMB     33       POPC     H13C     HL       0.250000       1.00800           0
      4297 MEMB     33       POPC     C14      CTL5    -0.350000       12.0110           0
      4298 MEMB     33       POPC     H14A     HL       0.250000       1.00800           0
      4299 MEMB     33       POPC     H14B     HL       0.250000       1.00800           0
      4300 MEMB     33       POPC     H14C     HL       0.250000       1.00800           0
      4301 MEMB     33       POPC     C15      CTL5    -0.350000       12.0110           0
      4302 MEMB     33       POPC     H15A     HL       0.250000       1.00800           0
      4303 MEMB     33       POPC     H15B     HL       0.250000       1.00800           0
      4304 MEMB     33       POPC     H15C     HL       0.250000       1.00800           0
      4305 MEMB     33       POPC     C11      CTL2    -0.800000E-01   12.0110           0
      4306 MEMB     33       POPC     H11A     HAL2     0.900000E-01   1.00800           0
      4307 MEMB     33       POPC     H11B     HAL2     0.900000E-01   1.00800           0
      4308 MEMB     33       POPC     P        PL        1.50000       30.9740           0
      4309 MEMB     33       POPC     O13      O2L     -0.780000       15.9994           0
      4310 MEMB     33       POPC     O14      O2L     -0.780000       15.9994           0
      4311 MEMB     33       POPC     O12      OSLP    -0.570000       15.9994           0
      4312 MEMB     33       POPC     O11      OSLP    -0.570000       15.9994           0
      4313 MEMB     33       POPC     C1       CTL2    -0.800000E-01   12.0110           0
      4314 MEMB     33       POPC     HA       HAL2     0.900000E-01   1.00800           0
      4315 MEMB     33       POPC     HB       HAL2     0.900000E-01   1.00800           0
      4316 MEMB     33       POPC     C2       CTL1     0.170000       12.0110           0
      4317 MEMB     33       POPC     HS       HAL1     0.900000E-01   1.00800           0
      4318 MEMB     33       POPC     O21      OSL     -0.490000       15.9994           0
      4319 MEMB     33       POPC     C21      CL       0.900000       12.0110           0
      4320 MEMB     33       POPC     O22      OBL     -0.630000       15.9994           0
      4321 MEMB     33       POPC     C22      CTL2    -0.220000       12.0110           0
      4322 MEMB     33       POPC     H2R      HAL2     0.900000E-01   1.00800           0
      4323 MEMB     33       POPC     H2S      HAL2     0.900000E-01   1.00800           0
      4324 MEMB     33       POPC     C3       CTL2     0.800000E-01   12.0110           0
      4325 MEMB     33       POPC     HX       HAL2     0.900000E-01   1.00800           0
      4326 MEMB     33       POPC     HY       HAL2     0.900000E-01   1.00800           0
      4327 MEMB     33       POPC     O31      OSL     -0.490000       15.9994           0
      4328 MEMB     33       POPC     C31      CL       0.900000       12.0110           0
      4329 MEMB     33       POPC     O32      OBL     -0.630000       15.9994           0
      4330 MEMB     33       POPC     C32      CTL2    -0.220000       12.0110           0
      4331 MEMB     33       POPC     H2X      HAL2     0.900000E-01   1.00800           0
      4332 MEMB     33       POPC     H2Y      HAL2     0.900000E-01   1.00800           0
      4333 MEMB     33       POPC     C23      CTL2    -0.180000       12.0110           0
      4334 MEMB     33       POPC     H3R      HAL2     0.900000E-01   1.00800           0
      4335 MEMB     33       POPC     H3S      HAL2     0.900000E-01   1.00800           0
      4336 MEMB     33       POPC     C24      CTL2    -0.180000       12.0110           0
      4337 MEMB     33       POPC     H4R      HAL2     0.900000E-01   1.00800           0
      4338 MEMB     33       POPC     H4S      HAL2     0.900000E-01   1.00800           0
      4339 MEMB     33       POPC     C25      CTL2    -0.180000       12.0110           0
      4340 MEMB     33       POPC     H5R      HAL2     0.900000E-01   1.00800           0
      4341 MEMB     33       POPC     H5S      HAL2     0.900000E-01   1.00800           0
      4342 MEMB     33       POPC     C26      CTL2    -0.180000       12.0110           0
      4343 MEMB     33       POPC     H6R      HAL2     0.900000E-01   1.00800           0
      4344 MEMB     33       POPC     H6S      HAL2     0.900000E-01   1.00800           0
      4345 MEMB     33       POPC     C27      CTL2    -0.180000       12.0110           0
      4346 MEMB     33       POPC     H7R      HAL2     0.900000E-01   1.00800           0
      4347 MEMB     33       POPC     H7S      HAL2     0.900000E-01   1.00800           0
      4348 MEMB     33       POPC     C28      CTL2    -0.180000       12.0110           0
      4349 MEMB     33       POPC     H8R      HAL2     0.900000E-01   1.00800           0
      4350 MEMB     33       POPC     H8S      HAL2     0.900000E-01   1.00800           0
      4351 MEMB     33       POPC     C29      CEL1    -0.150000       12.0110           0
      4352 MEMB     33       POPC     H91      HEL1     0.150000       1.00800           0
      4353 MEMB     33       POPC     C210     CEL1    -0.150000       12.0110           0
      4354 MEMB     33       POPC     H101     HEL1     0.150000       1.00800           0
      4355 MEMB     33       POPC     C211     CTL2    -0.180000       12.0110           0
      4356 MEMB     33       POPC     H11R     HAL2     0.900000E-01   1.00800           0
      4357 MEMB     33       POPC     H11S     HAL2     0.900000E-01   1.00800           0
      4358 MEMB     33       POPC     C212     CTL2    -0.180000       12.0110           0
      4359 MEMB     33       POPC     H12R     HAL2     0.900000E-01   1.00800           0
      4360 MEMB     33       POPC     H12S     HAL2     0.900000E-01   1.00800           0
      4361 MEMB     33       POPC     C213     CTL2    -0.180000       12.0110           0
      4362 MEMB     33       POPC     H13R     HAL2     0.900000E-01   1.00800           0
      4363 MEMB     33       POPC     H13S     HAL2     0.900000E-01   1.00800           0
      4364 MEMB     33       POPC     C214     CTL2    -0.180000       12.0110           0
      4365 MEMB     33       POPC     H14R     HAL2     0.900000E-01   1.00800           0
      4366 MEMB     33       POPC     H14S     HAL2     0.900000E-01   1.00800           0
      4367 MEMB     33       POPC     C215     CTL2    -0.180000       12.0110           0
      4368 MEMB     33       POPC     H15R     HAL2     0.900000E-01   1.00800           0
      4369 MEMB     33       POPC     H15S     HAL2     0.900000E-01   1.00800           0
      4370 MEMB     33       POPC     C216     CTL2    -0.180000       12.0110           0
      4371 MEMB     33       POPC     H16R     HAL2     0.900000E-01   1.00800           0
      4372 MEMB     33       POPC     H16S     HAL2     0.900000E-01   1.00800           0
      4373 MEMB     33       POPC     C217     CTL2    -0.180000       12.0110           0
      4374 MEMB     33       POPC     H17R     HAL2     0.900000E-01   1.00800           0
      4375 MEMB     33       POPC     H17S     HAL2     0.900000E-01   1.00800           0
      4376 MEMB     33       POPC     C218     CTL3    -0.270000       12.0110           0
      4377 MEMB     33       POPC     H18R     HAL3     0.900000E-01   1.00800           0
      4378 MEMB     33       POPC     H18S     HAL3     0.900000E-01   1.00800           0
      4379 MEMB     33       POPC     H18T     HAL3     0.900000E-01   1.00800           0
      4380 MEMB     33       POPC     C33      CTL2    -0.180000       12.0110           0
      4381 MEMB     33       POPC     H3X      HAL2     0.900000E-01   1.00800           0
      4382 MEMB     33       POPC     H3Y      HAL2     0.900000E-01   1.00800           0
      4383 MEMB     33       POPC     C34      CTL2    -0.180000       12.0110           0
      4384 MEMB     33       POPC     H4X      HAL2     0.900000E-01   1.00800           0
      4385 MEMB     33       POPC     H4Y      HAL2     0.900000E-01   1.00800           0
      4386 MEMB     33       POPC     C35      CTL2    -0.180000       12.0110           0
      4387 MEMB     33       POPC     H5X      HAL2     0.900000E-01   1.00800           0
      4388 MEMB     33       POPC     H5Y      HAL2     0.900000E-01   1.00800           0
      4389 MEMB     33       POPC     C36      CTL2    -0.180000       12.0110           0
      4390 MEMB     33       POPC     H6X      HAL2     0.900000E-01   1.00800           0
      4391 MEMB     33       POPC     H6Y      HAL2     0.900000E-01   1.00800           0
      4392 MEMB     33       POPC     C37      CTL2    -0.180000       12.0110           0
      4393 MEMB     33       POPC     H7X      HAL2     0.900000E-01   1.00800           0
      4394 MEMB     33       POPC     H7Y      HAL2     0.900000E-01   1.00800           0
      4395 MEMB     33       POPC     C38      CTL2    -0.180000       12.0110           0
      4396 MEMB     33       POPC     H8X      HAL2     0.900000E-01   1.00800           0
      4397 MEMB     33       POPC     H8Y      HAL2     0.900000E-01   1.00800           0
      4398 MEMB     33       POPC     C39      CTL2    -0.180000       12.0110           0
      4399 MEMB     33       POPC     H9X      HAL2     0.900000E-01   1.00800           0
      4400 MEMB     33       POPC     H9Y      HAL2     0.900000E-01   1.00800           0
      4401 MEMB     33       POPC     C310     CTL2    -0.180000       12.0110           0
      4402 MEMB     33       POPC     H10X     HAL2     0.900000E-01   1.00800           0
      4403 MEMB     33       POPC     H10Y     HAL2     0.900000E-01   1.00800           0
      4404 MEMB     33       POPC     C311     CTL2    -0.180000       12.0110           0
      4405 MEMB     33       POPC     H11X     HAL2     0.900000E-01   1.00800           0
      4406 MEMB     33       POPC     H11Y     HAL2     0.900000E-01   1.00800           0
      4407 MEMB     33       POPC     C312     CTL2    -0.180000       12.0110           0
      4408 MEMB     33       POPC     H12X     HAL2     0.900000E-01   1.00800           0
      4409 MEMB     33       POPC     H12Y     HAL2     0.900000E-01   1.00800           0
      4410 MEMB     33       POPC     C313     CTL2    -0.180000       12.0110           0
      4411 MEMB     33       POPC     H13X     HAL2     0.900000E-01   1.00800           0
      4412 MEMB     33       POPC     H13Y     HAL2     0.900000E-01   1.00800           0
      4413 MEMB     33       POPC     C314     CTL2    -0.180000       12.0110           0
      4414 MEMB     33       POPC     H14X     HAL2     0.900000E-01   1.00800           0
      4415 MEMB     33       POPC     H14Y     HAL2     0.900000E-01   1.00800           0
      4416 MEMB     33       POPC     C315     CTL2    -0.180000       12.0110           0
      4417 MEMB     33       POPC     H15X     HAL2     0.900000E-01   1.00800           0
      4418 MEMB     33       POPC     H15Y     HAL2     0.900000E-01   1.00800           0
      4419 MEMB     33       POPC     C316     CTL3    -0.270000       12.0110           0
      4420 MEMB     33       POPC     H16X     HAL3     0.900000E-01   1.00800           0
      4421 MEMB     33       POPC     H16Y     HAL3     0.900000E-01   1.00800           0
      4422 MEMB     33       POPC     H16Z     HAL3     0.900000E-01   1.00800           0
      4423 MEMB     34       POPC     N        NTL     -0.600000       14.0070           0
      4424 MEMB     34       POPC     C12      CTL2    -0.100000       12.0110           0
      4425 MEMB     34       POPC     H12A     HL       0.250000       1.00800           0
      4426 MEMB     34       POPC     H12B     HL       0.250000       1.00800           0
      4427 MEMB     34       POPC     C13      CTL5    -0.350000       12.0110           0
      4428 MEMB     34       POPC     H13A     HL       0.250000       1.00800           0
      4429 MEMB     34       POPC     H13B     HL       0.250000       1.00800           0
      4430 MEMB     34       POPC     H13C     HL       0.250000       1.00800           0
      4431 MEMB     34       POPC     C14      CTL5    -0.350000       12.0110           0
      4432 MEMB     34       POPC     H14A     HL       0.250000       1.00800           0
      4433 MEMB     34       POPC     H14B     HL       0.250000       1.00800           0
      4434 MEMB     34       POPC     H14C     HL       0.250000       1.00800           0
      4435 MEMB     34       POPC     C15      CTL5    -0.350000       12.0110           0
      4436 MEMB     34       POPC     H15A     HL       0.250000       1.00800           0
      4437 MEMB     34       POPC     H15B     HL       0.250000       1.00800           0
      4438 MEMB     34       POPC     H15C     HL       0.250000       1.00800           0
      4439 MEMB     34       POPC     C11      CTL2    -0.800000E-01   12.0110           0
      4440 MEMB     34       POPC     H11A     HAL2     0.900000E-01   1.00800           0
      4441 MEMB     34       POPC     H11B     HAL2     0.900000E-01   1.00800           0
      4442 MEMB     34       POPC     P        PL        1.50000       30.9740           0
      4443 MEMB     34       POPC     O13      O2L     -0.780000       15.9994           0
      4444 MEMB     34       POPC     O14      O2L     -0.780000       15.9994           0
      4445 MEMB     34       POPC     O12      OSLP    -0.570000       15.9994           0
      4446 MEMB     34       POPC     O11      OSLP    -0.570000       15.9994           0
      4447 MEMB     34       POPC     C1       CTL2    -0.800000E-01   12.0110           0
      4448 MEMB     34       POPC     HA       HAL2     0.900000E-01   1.00800           0
      4449 MEMB     34       POPC     HB       HAL2     0.900000E-01   1.00800           0
      4450 MEMB     34       POPC     C2       CTL1     0.170000       12.0110           0
      4451 MEMB     34       POPC     HS       HAL1     0.900000E-01   1.00800           0
      4452 MEMB     34       POPC     O21      OSL     -0.490000       15.9994           0
      4453 MEMB     34       POPC     C21      CL       0.900000       12.0110           0
      4454 MEMB     34       POPC     O22      OBL     -0.630000       15.9994           0
      4455 MEMB     34       POPC     C22      CTL2    -0.220000       12.0110           0
      4456 MEMB     34       POPC     H2R      HAL2     0.900000E-01   1.00800           0
      4457 MEMB     34       POPC     H2S      HAL2     0.900000E-01   1.00800           0
      4458 MEMB     34       POPC     C3       CTL2     0.800000E-01   12.0110           0
      4459 MEMB     34       POPC     HX       HAL2     0.900000E-01   1.00800           0
      4460 MEMB     34       POPC     HY       HAL2     0.900000E-01   1.00800           0
      4461 MEMB     34       POPC     O31      OSL     -0.490000       15.9994           0
      4462 MEMB     34       POPC     C31      CL       0.900000       12.0110           0
      4463 MEMB     34       POPC     O32      OBL     -0.630000       15.9994           0
      4464 MEMB     34       POPC     C32      CTL2    -0.220000       12.0110           0
      4465 MEMB     34       POPC     H2X      HAL2     0.900000E-01   1.00800           0
      4466 MEMB     34       POPC     H2Y      HAL2     0.900000E-01   1.00800           0
      4467 MEMB     34       POPC     C23      CTL2    -0.180000       12.0110           0
      4468 MEMB     34       POPC     H3R      HAL2     0.900000E-01   1.00800           0
      4469 MEMB     34       POPC     H3S      HAL2     0.900000E-01   1.00800           0
      4470 MEMB     34       POPC     C24      CTL2    -0.180000       12.0110           0
      4471 MEMB     34       POPC     H4R      HAL2     0.900000E-01   1.00800           0
      4472 MEMB     34       POPC     H4S      HAL2     0.900000E-01   1.00800           0
      4473 MEMB     34       POPC     C25      CTL2    -0.180000       12.0110           0
      4474 MEMB     34       POPC     H5R      HAL2     0.900000E-01   1.00800           0
      4475 MEMB     34       POPC     H5S      HAL2     0.900000E-01   1.00800           0
      4476 MEMB     34       POPC     C26      CTL2    -0.180000       12.0110           0
      4477 MEMB     34       POPC     H6R      HAL2     0.900000E-01   1.00800           0
      4478 MEMB     34       POPC     H6S      HAL2     0.900000E-01   1.00800           0
      4479 MEMB     34       POPC     C27      CTL2    -0.180000       12.0110           0
      4480 MEMB     34       POPC     H7R      HAL2     0.900000E-01   1.00800           0
      4481 MEMB     34       POPC     H7S      HAL2     0.900000E-01   1.00800           0
      4482 MEMB     34       POPC     C28      CTL2    -0.180000       12.0110           0
      4483 MEMB     34       POPC     H8R      HAL2     0.900000E-01   1.00800           0
      4484 MEMB     34       POPC     H8S      HAL2     0.900000E-01   1.00800           0
      4485 MEMB     34       POPC     C29      CEL1    -0.150000       12.0110           0
      4486 MEMB     34       POPC     H91      HEL1     0.150000       1.00800           0
      4487 MEMB     34       POPC     C210     CEL1    -0.150000       12.0110           0
      4488 MEMB     34       POPC     H101     HEL1     0.150000       1.00800           0
      4489 MEMB     34       POPC     C211     CTL2    -0.180000       12.0110           0
      4490 MEMB     34       POPC     H11R     HAL2     0.900000E-01   1.00800           0
      4491 MEMB     34       POPC     H11S     HAL2     0.900000E-01   1.00800           0
      4492 MEMB     34       POPC     C212     CTL2    -0.180000       12.0110           0
      4493 MEMB     34       POPC     H12R     HAL2     0.900000E-01   1.00800           0
      4494 MEMB     34       POPC     H12S     HAL2     0.900000E-01   1.00800           0
      4495 MEMB     34       POPC     C213     CTL2    -0.180000       12.0110           0
      4496 MEMB     34       POPC     H13R     HAL2     0.900000E-01   1.00800           0
      4497 MEMB     34       POPC     H13S     HAL2     0.900000E-01   1.00800           0
      4498 MEMB     34       POPC     C214     CTL2    -0.180000       12.0110           0
      4499 MEMB     34       POPC     H14R     HAL2     0.900000E-01   1.00800           0
      4500 MEMB     34       POPC     H14S     HAL2     0.900000E-01   1.00800           0
      4501 MEMB     34       POPC     C215     CTL2    -0.180000       12.0110           0
      4502 MEMB     34       POPC     H15R     HAL2     0.900000E-01   1.00800           0
      4503 MEMB     34       POPC     H15S     HAL2     0.900000E-01   1.00800           0
      4504 MEMB     34       POPC     C216     CTL2    -0.180000       12.0110           0
      4505 MEMB     34       POPC     H16R     HAL2     0.900000E-01   1.00800           0
      4506 MEMB     34       POPC     H16S     HAL2     0.900000E-01   1.00800           0
      4507 MEMB     34       POPC     C217     CTL2    -0.180000       12.0110           0
      4508 MEMB     34       POPC     H17R     HAL2     0.900000E-01   1.00800           0
      4509 MEMB     34       POPC     H17S     HAL2     0.900000E-01   1.00800           0
      4510 MEMB     34       POPC     C218     CTL3    -0.270000       12.0110           0
      4511 MEMB     34       POPC     H18R     HAL3     0.900000E-01   1.00800           0
      4512 MEMB     34       POPC     H18S     HAL3     0.900000E-01   1.00800           0
      4513 MEMB     34       POPC     H18T     HAL3     0.900000E-01   1.00800           0
      4514 MEMB     34       POPC     C33      CTL2    -0.180000       12.0110           0
      4515 MEMB     34       POPC     H3X      HAL2     0.900000E-01   1.00800           0
      4516 MEMB     34       POPC     H3Y      HAL2     0.900000E-01   1.00800           0
      4517 MEMB     34       POPC     C34      CTL2    -0.180000       12.0110           0
      4518 MEMB     34       POPC     H4X      HAL2     0.900000E-01   1.00800           0
      4519 MEMB     34       POPC     H4Y      HAL2     0.900000E-01   1.00800           0
      4520 MEMB     34       POPC     C35      CTL2    -0.180000       12.0110           0
      4521 MEMB     34       POPC     H5X      HAL2     0.900000E-01   1.00800           0
      4522 MEMB     34       POPC     H5Y      HAL2     0.900000E-01   1.00800           0
      4523 MEMB     34       POPC     C36      CTL2    -0.180000       12.0110           0
      4524 MEMB     34       POPC     H6X      HAL2     0.900000E-01   1.00800           0
      4525 MEMB     34       POPC     H6Y      HAL2     0.900000E-01   1.00800           0
      4526 MEMB     34       POPC     C37      CTL2    -0.180000       12.0110           0
      4527 MEMB     34       POPC     H7X      HAL2     0.900000E-01   1.00800           0
      4528 MEMB     34       POPC     H7Y      HAL2     0.900000E-01   1.00800           0
      4529 MEMB     34       POPC     C38      CTL2    -0.180000       12.0110           0
      4530 MEMB     34       POPC     H8X      HAL2     0.900000E-01   1.00800           0
      4531 MEMB     34       POPC     H8Y      HAL2     0.900000E-01   1.00800           0
      4532 MEMB     34       POPC     C39      CTL2    -0.180000       12.0110           0
      4533 MEMB     34       POPC     H9X      HAL2     0.900000E-01   1.00800           0
      4534 MEMB     34       POPC     H9Y      HAL2     0.900000E-01   1.00800           0
      4535 MEMB     34       POPC     C310     CTL2    -0.180000       12.0110           0
      4536 MEMB     34       POPC     H10X     HAL2     0.900000E-01   1.00800           0
      4537 MEMB     34       POPC     H10Y     HAL2     0.900000E-01   1.00800           0
      4538 MEMB     34       POPC     C311     CTL2    -0.180000       12.0110           0
      4539 MEMB     34       POPC     H11X     HAL2     0.900000E-01   1.00800           0
      4540 MEMB     34       POPC     H11Y     HAL2     0.900000E-01   1.00800           0
      4541 MEMB     34       POPC     C312     CTL2    -0.180000       12.0110           0
      4542 MEMB     34       POPC     H12X     HAL2     0.900000E-01   1.00800           0
      4543 MEMB     34       POPC     H12Y     HAL2     0.900000E-01   1.00800           0
      4544 MEMB     34       POPC     C313     CTL2    -0.180000       12.0110           0
      4545 MEMB     34       POPC     H13X     HAL2     0.900000E-01   1.00800           0
      4546 MEMB     34       POPC     H13Y     HAL2     0.900000E-01   1.00800           0
      4547 MEMB     34       POPC     C314     CTL2    -0.180000       12.0110           0
      4548 MEMB     34       POPC     H14X     HAL2     0.900000E-01   1.00800           0
      4549 MEMB     34       POPC     H14Y     HAL2     0.900000E-01   1.00800           0
      4550 MEMB     34       POPC     C315     CTL2    -0.180000       12.0110           0
      4551 MEMB     34       POPC     H15X     HAL2     0.900000E-01   1.00800           0
      4552 MEMB     34       POPC     H15Y     HAL2     0.900000E-01   1.00800           0
      4553 MEMB     34       POPC     C316     CTL3    -0.270000       12.0110           0
      4554 MEMB     34       POPC     H16X     HAL3     0.900000E-01   1.00800           0
      4555 MEMB     34       POPC     H16Y     HAL3     0.900000E-01   1.00800           0
      4556 MEMB     34       POPC     H16Z     HAL3     0.900000E-01   1.00800           0
      4557 MEMB     35       POPC     N        NTL     -0.600000       14.0070           0
      4558 MEMB     35       POPC     C12      CTL2    -0.100000       12.0110           0
      4559 MEMB     35       POPC     H12A     HL       0.250000       1.00800           0
      4560 MEMB     35       POPC     H12B     HL       0.250000       1.00800           0
      4561 MEMB     35       POPC     C13      CTL5    -0.350000       12.0110           0
      4562 MEMB     35       POPC     H13A     HL       0.250000       1.00800           0
      4563 MEMB     35       POPC     H13B     HL       0.250000       1.00800           0
      4564 MEMB     35       POPC     H13C     HL       0.250000       1.00800           0
      4565 MEMB     35       POPC     C14      CTL5    -0.350000       12.0110           0
      4566 MEMB     35       POPC     H14A     HL       0.250000       1.00800           0
      4567 MEMB     35       POPC     H14B     HL       0.250000       1.00800           0
      4568 MEMB     35       POPC     H14C     HL       0.250000       1.00800           0
      4569 MEMB     35       POPC     C15      CTL5    -0.350000       12.0110           0
      4570 MEMB     35       POPC     H15A     HL       0.250000       1.00800           0
      4571 MEMB     35       POPC     H15B     HL       0.250000       1.00800           0
      4572 MEMB     35       POPC     H15C     HL       0.250000       1.00800           0
      4573 MEMB     35       POPC     C11      CTL2    -0.800000E-01   12.0110           0
      4574 MEMB     35       POPC     H11A     HAL2     0.900000E-01   1.00800           0
      4575 MEMB     35       POPC     H11B     HAL2     0.900000E-01   1.00800           0
      4576 MEMB     35       POPC     P        PL        1.50000       30.9740           0
      4577 MEMB     35       POPC     O13      O2L     -0.780000       15.9994           0
      4578 MEMB     35       POPC     O14      O2L     -0.780000       15.9994           0
      4579 MEMB     35       POPC     O12      OSLP    -0.570000       15.9994           0
      4580 MEMB     35       POPC     O11      OSLP    -0.570000       15.9994           0
      4581 MEMB     35       POPC     C1       CTL2    -0.800000E-01   12.0110           0
      4582 MEMB     35       POPC     HA       HAL2     0.900000E-01   1.00800           0
      4583 MEMB     35       POPC     HB       HAL2     0.900000E-01   1.00800           0
      4584 MEMB     35       POPC     C2       CTL1     0.170000       12.0110           0
      4585 MEMB     35       POPC     HS       HAL1     0.900000E-01   1.00800           0
      4586 MEMB     35       POPC     O21      OSL     -0.490000       15.9994           0
      4587 MEMB     35       POPC     C21      CL       0.900000       12.0110           0
      4588 MEMB     35       POPC     O22      OBL     -0.630000       15.9994           0
      4589 MEMB     35       POPC     C22      CTL2    -0.220000       12.0110           0
      4590 MEMB     35       POPC     H2R      HAL2     0.900000E-01   1.00800           0
      4591 MEMB     35       POPC     H2S      HAL2     0.900000E-01   1.00800           0
      4592 MEMB     35       POPC     C3       CTL2     0.800000E-01   12.0110           0
      4593 MEMB     35       POPC     HX       HAL2     0.900000E-01   1.00800           0
      4594 MEMB     35       POPC     HY       HAL2     0.900000E-01   1.00800           0
      4595 MEMB     35       POPC     O31      OSL     -0.490000       15.9994           0
      4596 MEMB     35       POPC     C31      CL       0.900000       12.0110           0
      4597 MEMB     35       POPC     O32      OBL     -0.630000       15.9994           0
      4598 MEMB     35       POPC     C32      CTL2    -0.220000       12.0110           0
      4599 MEMB     35       POPC     H2X      HAL2     0.900000E-01   1.00800           0
      4600 MEMB     35       POPC     H2Y      HAL2     0.900000E-01   1.00800           0
      4601 MEMB     35       POPC     C23      CTL2    -0.180000       12.0110           0
      4602 MEMB     35       POPC     H3R      HAL2     0.900000E-01   1.00800           0
      4603 MEMB     35       POPC     H3S      HAL2     0.900000E-01   1.00800           0
      4604 MEMB     35       POPC     C24      CTL2    -0.180000       12.0110           0
      4605 MEMB     35       POPC     H4R      HAL2     0.900000E-01   1.00800           0
      4606 MEMB     35       POPC     H4S      HAL2     0.900000E-01   1.00800           0
      4607 MEMB     35       POPC     C25      CTL2    -0.180000       12.0110           0
      4608 MEMB     35       POPC     H5R      HAL2     0.900000E-01   1.00800           0
      4609 MEMB     35       POPC     H5S      HAL2     0.900000E-01   1.00800           0
      4610 MEMB     35       POPC     C26      CTL2    -0.180000       12.0110           0
      4611 MEMB     35       POPC     H6R      HAL2     0.900000E-01   1.00800           0
      4612 MEMB     35       POPC     H6S      HAL2     0.900000E-01   1.00800           0
      4613 MEMB     35       POPC     C27      CTL2    -0.180000       12.0110           0
      4614 MEMB     35       POPC     H7R      HAL2     0.900000E-01   1.00800           0
      4615 MEMB     35       POPC     H7S      HAL2     0.900000E-01   1.00800           0
      4616 MEMB     35       POPC     C28      CTL2    -0.180000       12.0110           0
      4617 MEMB     35       POPC     H8R      HAL2     0.900000E-01   1.00800           0
      4618 MEMB     35       POPC     H8S      HAL2     0.900000E-01   1.00800           0
      4619 MEMB     35       POPC     C29      CEL1    -0.150000       12.0110           0
      4620 MEMB     35       POPC     H91      HEL1     0.150000       1.00800           0
      4621 MEMB     35       POPC     C210     CEL1    -0.150000       12.0110           0
      4622 MEMB     35       POPC     H101     HEL1     0.150000       1.00800           0
      4623 MEMB     35       POPC     C211     CTL2    -0.180000       12.0110           0
      4624 MEMB     35       POPC     H11R     HAL2     0.900000E-01   1.00800           0
      4625 MEMB     35       POPC     H11S     HAL2     0.900000E-01   1.00800           0
      4626 MEMB     35       POPC     C212     CTL2    -0.180000       12.0110           0
      4627 MEMB     35       POPC     H12R     HAL2     0.900000E-01   1.00800           0
      4628 MEMB     35       POPC     H12S     HAL2     0.900000E-01   1.00800           0
      4629 MEMB     35       POPC     C213     CTL2    -0.180000       12.0110           0
      4630 MEMB     35       POPC     H13R     HAL2     0.900000E-01   1.00800           0
      4631 MEMB     35       POPC     H13S     HAL2     0.900000E-01   1.00800           0
      4632 MEMB     35       POPC     C214     CTL2    -0.180000       12.0110           0
      4633 MEMB     35       POPC     H14R     HAL2     0.900000E-01   1.00800           0
      4634 MEMB     35       POPC     H14S     HAL2     0.900000E-01   1.00800           0
      4635 MEMB     35       POPC     C215     CTL2    -0.180000       12.0110           0
      4636 MEMB     35       POPC     H15R     HAL2     0.900000E-01   1.00800           0
      4637 MEMB     35       POPC     H15S     HAL2     0.900000E-01   1.00800           0
      4638 MEMB     35       POPC     C216     CTL2    -0.180000       12.0110           0
      4639 MEMB     35       POPC     H16R     HAL2     0.900000E-01   1.00800           0
      4640 MEMB     35       POPC     H16S     HAL2     0.900000E-01   1.00800           0
      4641 MEMB     35       POPC     C217     CTL2    -0.180000       12.0110           0
      4642 MEMB     35       POPC     H17R     HAL2     0.900000E-01   1.00800           0
      4643 MEMB     35       POPC     H17S     HAL2     0.900000E-01   1.00800           0
      4644 MEMB     35       POPC     C218     CTL3    -0.270000       12.0110           0
      4645 MEMB     35       POPC     H18R     HAL3     0.900000E-01   1.00800           0
      4646 MEMB     35       POPC     H18S     HAL3     0.900000E-01   1.00800           0
      4647 MEMB     35       POPC     H18T     HAL3     0.900000E-01   1.00800           0
      4648 MEMB     35       POPC     C33      CTL2    -0.180000       12.0110           0
      4649 MEMB     35       POPC     H3X      HAL2     0.900000E-01   1.00800           0
      4650 MEMB     35       POPC     H3Y      HAL2     0.900000E-01   1.00800           0
      4651 MEMB     35       POPC     C34      CTL2    -0.180000       12.0110           0
      4652 MEMB     35       POPC     H4X      HAL2     0.900000E-01   1.00800           0
      4653 MEMB     35       POPC     H4Y      HAL2     0.900000E-01   1.00800           0
      4654 MEMB     35       POPC     C35      CTL2    -0.180000       12.0110           0
      4655 MEMB     35       POPC     H5X      HAL2     0.900000E-01   1.00800           0
      4656 MEMB     35       POPC     H5Y      HAL2     0.900000E-01   1.00800           0
      4657 MEMB     35       POPC     C36      CTL2    -0.180000       12.0110           0
      4658 MEMB     35       POPC     H6X      HAL2     0.900000E-01   1.00800           0
      4659 MEMB     35       POPC     H6Y      HAL2     0.900000E-01   1.00800           0
      4660 MEMB     35       POPC     C37      CTL2    -0.180000       12.0110           0
      4661 MEMB     35       POPC     H7X      HAL2     0.900000E-01   1.00800           0
      4662 MEMB     35       POPC     H7Y      HAL2     0.900000E-01   1.00800           0
      4663 MEMB     35       POPC     C38      CTL2    -0.180000       12.0110           0
      4664 MEMB     35       POPC     H8X      HAL2     0.900000E-01   1.00800           0
      4665 MEMB     35       POPC     H8Y      HAL2     0.900000E-01   1.00800           0
      4666 MEMB     35       POPC     C39      CTL2    -0.180000       12.0110           0
      4667 MEMB     35       POPC     H9X      HAL2     0.900000E-01   1.00800           0
      4668 MEMB     35       POPC     H9Y      HAL2     0.900000E-01   1.00800           0
      4669 MEMB     35       POPC     C310     CTL2    -0.180000       12.0110           0
      4670 MEMB     35       POPC     H10X     HAL2     0.900000E-01   1.00800           0
      4671 MEMB     35       POPC     H10Y     HAL2     0.900000E-01   1.00800           0
      4672 MEMB     35       POPC     C311     CTL2    -0.180000       12.0110           0
      4673 MEMB     35       POPC     H11X     HAL2     0.900000E-01   1.00800           0
      4674 MEMB     35       POPC     H11Y     HAL2     0.900000E-01   1.00800           0
      4675 MEMB     35       POPC     C312     CTL2    -0.180000       12.0110           0
      4676 MEMB     35       POPC     H12X     HAL2     0.900000E-01   1.00800           0
      4677 MEMB     35       POPC     H12Y     HAL2     0.900000E-01   1.00800           0
      4678 MEMB     35       POPC     C313     CTL2    -0.180000       12.0110           0
      4679 MEMB     35       POPC     H13X     HAL2     0.900000E-01   1.00800           0
      4680 MEMB     35       POPC     H13Y     HAL2     0.900000E-01   1.00800           0
      4681 MEMB     35       POPC     C314     CTL2    -0.180000       12.0110           0
      4682 MEMB     35       POPC     H14X     HAL2     0.900000E-01   1.00800           0
      4683 MEMB     35       POPC     H14Y     HAL2     0.900000E-01   1.00800           0
      4684 MEMB     35       POPC     C315     CTL2    -0.180000       12.0110           0
      4685 MEMB     35       POPC     H15X     HAL2     0.900000E-01   1.00800           0
      4686 MEMB     35       POPC     H15Y     HAL2     0.900000E-01   1.00800           0
      4687 MEMB     35       POPC     C316     CTL3    -0.270000       12.0110           0
      4688 MEMB     35       POPC     H16X     HAL3     0.900000E-01   1.00800           0
      4689 MEMB     35       POPC     H16Y     HAL3     0.900000E-01   1.00800           0
      4690 MEMB     35       POPC     H16Z     HAL3     0.900000E-01   1.00800           0
      4691 MEMB     36       POPC     N        NTL     -0.600000       14.0070           0
      4692 MEMB     36       POPC     C12      CTL2    -0.100000       12.0110           0
      4693 MEMB     36       POPC     H12A     HL       0.250000       1.00800           0
      4694 MEMB     36       POPC     H12B     HL       0.250000       1.00800           0
      4695 MEMB     36       POPC     C13      CTL5    -0.350000       12.0110           0
      4696 MEMB     36       POPC     H13A     HL       0.250000       1.00800           0
      4697 MEMB     36       POPC     H13B     HL       0.250000       1.00800           0
      4698 MEMB     36       POPC     H13C     HL       0.250000       1.00800           0
      4699 MEMB     36       POPC     C14      CTL5    -0.350000       12.0110           0
      4700 MEMB     36       POPC     H14A     HL       0.250000       1.00800           0
      4701 MEMB     36       POPC     H14B     HL       0.250000       1.00800           0
      4702 MEMB     36       POPC     H14C     HL       0.250000       1.00800           0
      4703 MEMB     36       POPC     C15      CTL5    -0.350000       12.0110           0
      4704 MEMB     36       POPC     H15A     HL       0.250000       1.00800           0
      4705 MEMB     36       POPC     H15B     HL       0.250000       1.00800           0
      4706 MEMB     36       POPC     H15C     HL       0.250000       1.00800           0
      4707 MEMB     36       POPC     C11      CTL2    -0.800000E-01   12.0110           0
      4708 MEMB     36       POPC     H11A     HAL2     0.900000E-01   1.00800           0
      4709 MEMB     36       POPC     H11B     HAL2     0.900000E-01   1.00800           0
      4710 MEMB     36       POPC     P        PL        1.50000       30.9740           0
      4711 MEMB     36       POPC     O13      O2L     -0.780000       15.9994           0
      4712 MEMB     36       POPC     O14      O2L     -0.780000       15.9994           0
      4713 MEMB     36       POPC     O12      OSLP    -0.570000       15.9994           0
      4714 MEMB     36       POPC     O11      OSLP    -0.570000       15.9994           0
      4715 MEMB     36       POPC     C1       CTL2    -0.800000E-01   12.0110           0
      4716 MEMB     36       POPC     HA       HAL2     0.900000E-01   1.00800           0
      4717 MEMB     36       POPC     HB       HAL2     0.900000E-01   1.00800           0
      4718 MEMB     36       POPC     C2       CTL1     0.170000       12.0110           0
      4719 MEMB     36       POPC     HS       HAL1     0.900000E-01   1.00800           0
      4720 MEMB     36       POPC     O21      OSL     -0.490000       15.9994           0
      4721 MEMB     36       POPC     C21      CL       0.900000       12.0110           0
      4722 MEMB     36       POPC     O22      OBL     -0.630000       15.9994           0
      4723 MEMB     36       POPC     C22      CTL2    -0.220000       12.0110           0
      4724 MEMB     36       POPC     H2R      HAL2     0.900000E-01   1.00800           0
      4725 MEMB     36       POPC     H2S      HAL2     0.900000E-01   1.00800           0
      4726 MEMB     36       POPC     C3       CTL2     0.800000E-01   12.0110           0
      4727 MEMB     36       POPC     HX       HAL2     0.900000E-01   1.00800           0
      4728 MEMB     36       POPC     HY       HAL2     0.900000E-01   1.00800           0
      4729 MEMB     36       POPC     O31      OSL     -0.490000       15.9994           0
      4730 MEMB     36       POPC     C31      CL       0.900000       12.0110           0
      4731 MEMB     36       POPC     O32      OBL     -0.630000       15.9994           0
      4732 MEMB     36       POPC     C32      CTL2    -0.220000       12.0110           0
      4733 MEMB     36       POPC     H2X      HAL2     0.900000E-01   1.00800           0
      4734 MEMB     36       POPC     H2Y      HAL2     0.900000E-01   1.00800           0
      4735 MEMB     36       POPC     C23      CTL2    -0.180000       12.0110           0
      4736 MEMB     36       POPC     H3R      HAL2     0.900000E-01   1.00800           0
      4737 MEMB     36       POPC     H3S      HAL2     0.900000E-01   1.00800           0
      4738 MEMB     36       POPC     C24      CTL2    -0.180000       12.0110           0
      4739 MEMB     36       POPC     H4R      HAL2     0.900000E-01   1.00800           0
      4740 MEMB     36       POPC     H4S      HAL2     0.900000E-01   1.00800           0
      4741 MEMB     36       POPC     C25      CTL2    -0.180000       12.0110           0
      4742 MEMB     36       POPC     H5R      HAL2     0.900000E-01   1.00800           0
      4743 MEMB     36       POPC     H5S      HAL2     0.900000E-01   1.00800           0
      4744 MEMB     36       POPC     C26      CTL2    -0.180000       12.0110           0
      4745 MEMB     36       POPC     H6R      HAL2     0.900000E-01   1.00800           0
      4746 MEMB     36       POPC     H6S      HAL2     0.900000E-01   1.00800           0
      4747 MEMB     36       POPC     C27      CTL2    -0.180000       12.0110           0
      4748 MEMB     36       POPC     H7R      HAL2     0.900000E-01   1.00800           0
      4749 MEMB     36       POPC     H7S      HAL2     0.900000E-01   1.00800           0
      4750 MEMB     36       POPC     C28      CTL2    -0.180000       12.0110           0
      4751 MEMB     36       POPC     H8R      HAL2     0.900000E-01   1.00800           0
      4752 MEMB     36       POPC     H8S      HAL2     0.900000E-01   1.00800           0
      4753 MEMB     36       POPC     C29      CEL1    -0.150000       12.0110           0
      4754 MEMB     36       POPC     H91      HEL1     0.150000       1.00800           0
      4755 MEMB     36       POPC     C210     CEL1    -0.150000       12.0110           0
      4756 MEMB     36       POPC     H101     HEL1     0.150000       1.00800           0
      4757 MEMB     36       POPC     C211     CTL2    -0.180000       12.0110           0
      4758 MEMB     36       POPC     H11R     HAL2     0.900000E-01   1.00800           0
      4759 MEMB     36       POPC     H11S     HAL2     0.900000E-01   1.00800           0
      4760 MEMB     36       POPC     C212     CTL2    -0.180000       12.0110           0
      4761 MEMB     36       POPC     H12R     HAL2     0.900000E-01   1.00800           0
      4762 MEMB     36       POPC     H12S     HAL2     0.900000E-01   1.00800           0
      4763 MEMB     36       POPC     C213     CTL2    -0.180000       12.0110           0
      4764 MEMB     36       POPC     H13R     HAL2     0.900000E-01   1.00800           0
      4765 MEMB     36       POPC     H13S     HAL2     0.900000E-01   1.00800           0
      4766 MEMB     36       POPC     C214     CTL2    -0.180000       12.0110           0
      4767 MEMB     36       POPC     H14R     HAL2     0.900000E-01   1.00800           0
      4768 MEMB     36       POPC     H14S     HAL2     0.900000E-01   1.00800           0
      4769 MEMB     36       POPC     C215     CTL2    -0.180000       12.0110           0
      4770 MEMB     36       POPC     H15R     HAL2     0.900000E-01   1.00800           0
      4771 MEMB     36       POPC     H15S     HAL2     0.900000E-01   1.00800           0
      4772 MEMB     36       POPC     C216     CTL2    -0.180000       12.0110           0
      4773 MEMB     36       POPC     H16R     HAL2     0.900000E-01   1.00800           0
      4774 MEMB     36       POPC     H16S     HAL2     0.900000E-01   1.00800           0
      4775 MEMB     36       POPC     C217     CTL2    -0.180000       12.0110           0
      4776 MEMB     36       POPC     H17R     HAL2     0.900000E-01   1.00800           0
      4777 MEMB     36       POPC     H17S     HAL2     0.900000E-01   1.00800           0
      4778 MEMB     36       POPC     C218     CTL3    -0.270000       12.0110           0
      4779 MEMB     36       POPC     H18R     HAL3     0.900000E-01   1.00800           0
      4780 MEMB     36       POPC     H18S     HAL3     0.900000E-01   1.00800           0
      4781 MEMB     36       POPC     H18T     HAL3     0.900000E-01   1.00800           0
      4782 MEMB     36       POPC     C33      CTL2    -0.180000       12.0110           0
      4783 MEMB     36       POPC     H3X      HAL2     0.900000E-01   1.00800           0
      4784 MEMB     36       POPC     H3Y      HAL2     0.900000E-01   1.00800           0
      4785 MEMB     36       POPC     C34      CTL2    -0.180000       12.0110           0
      4786 MEMB     36       POPC     H4X      HAL2     0.900000E-01   1.00800           0
      4787 MEMB     36       POPC     H4Y      HAL2     0.900000E-01   1.00800           0
      4788 MEMB     36       POPC     C35      CTL2    -0.180000       12.0110           0
      4789 MEMB     36       POPC     H5X      HAL2     0.900000E-01   1.00800           0
      4790 MEMB     36       POPC     H5Y      HAL2     0.900000E-01   1.00800           0
      4791 MEMB     36       POPC     C36      CTL2    -0.180000       12.0110           0
      4792 MEMB     36       POPC     H6X      HAL2     0.900000E-01   1.00800           0
      4793 MEMB     36       POPC     H6Y      HAL2     0.900000E-01   1.00800           0
      4794 MEMB     36       POPC     C37      CTL2    -0.180000       12.0110           0
      4795 MEMB     36       POPC     H7X      HAL2     0.900000E-01   1.00800           0
      4796 MEMB     36       POPC     H7Y      HAL2     0.900000E-01   1.00800           0
      4797 MEMB     36       POPC     C38      CTL2    -0.180000       12.0110           0
      4798 MEMB     36       POPC     H8X      HAL2     0.900000E-01   1.00800           0
      4799 MEMB     36       POPC     H8Y      HAL2     0.900000E-01   1.00800           0
      4800 MEMB     36       POPC     C39      CTL2    -0.180000       12.0110           0
      4801 MEMB     36       POPC     H9X      HAL2     0.900000E-01   1.00800           0
      4802 MEMB     36       POPC     H9Y      HAL2     0.900000E-01   1.00800           0
      4803 MEMB     36       POPC     C310     CTL2    -0.180000       12.0110           0
      4804 MEMB     36       POPC     H10X     HAL2     0.900000E-01   1.00800           0
      4805 MEMB     36       POPC     H10Y     HAL2     0.900000E-01   1.00800           0
      4806 MEMB     36       POPC     C311     CTL2    -0.180000       12.0110           0
      4807 MEMB     36       POPC     H11X     HAL2     0.900000E-01   1.00800           0
      4808 MEMB     36       POPC     H11Y     HAL2     0.900000E-01   1.00800           0
      4809 MEMB     36       POPC     C312     CTL2    -0.180000       12.0110           0
      4810 MEMB     36       POPC     H12X     HAL2     0.900000E-01   1.00800           0
      4811 MEMB     36       POPC     H12Y     HAL2     0.900000E-01   1.00800           0
      4812 MEMB     36       POPC     C313     CTL2    -0.180000       12.0110           0
      4813 MEMB     36       POPC     H13X     HAL2     0.900000E-01   1.00800           0
      4814 MEMB     36       POPC     H13Y     HAL2     0.900000E-01   1.00800           0
      4815 MEMB     36       POPC     C314     CTL2    -0.180000       12.0110           0
      4816 MEMB     36       POPC     H14X     HAL2     0.900000E-01   1.00800           0
      4817 MEMB     36       POPC     H14Y     HAL2     0.900000E-01   1.00800           0
      4818 MEMB     36       POPC     C315     CTL2    -0.180000       12.0110           0
      4819 MEMB     36       POPC     H15X     HAL2     0.900000E-01   1.00800           0
      4820 MEMB     36       POPC     H15Y     HAL2     0.900000E-01   1.00800           0
      4821 MEMB     36       POPC     C316     CTL3    -0.270000       12.0110           0
      4822 MEMB     36       POPC     H16X     HAL3     0.900000E-01   1.00800           0
      4823 MEMB     36       POPC     H16Y     HAL3     0.900000E-01   1.00800           0
      4824 MEMB     36       POPC     H16Z     HAL3     0.900000E-01   1.00800           0
      4825 MEMB     37       POPC     N        NTL     -0.600000       14.0070           0
      4826 MEMB     37       POPC     C12      CTL2    -0.100000       12.0110           0
      4827 MEMB     37       POPC     H12A     HL       0.250000       1.00800           0
      4828 MEMB     37       POPC     H12B     HL       0.250000       1.00800           0
      4829 MEMB     37       POPC     C13      CTL5    -0.350000       12.0110           0
      4830 MEMB     37       POPC     H13A     HL       0.250000       1.00800           0
      4831 MEMB     37       POPC     H13B     HL       0.250000       1.00800           0
      4832 MEMB     37       POPC     H13C     HL       0.250000       1.00800           0
      4833 MEMB     37       POPC     C14      CTL5    -0.350000       12.0110           0
      4834 MEMB     37       POPC     H14A     HL       0.250000       1.00800           0
      4835 MEMB     37       POPC     H14B     HL       0.250000       1.00800           0
      4836 MEMB     37       POPC     H14C     HL       0.250000       1.00800           0
      4837 MEMB     37       POPC     C15      CTL5    -0.350000       12.0110           0
      4838 MEMB     37       POPC     H15A     HL       0.250000       1.00800           0
      4839 MEMB     37       POPC     H15B     HL       0.250000       1.00800           0
      4840 MEMB     37       POPC     H15C     HL       0.250000       1.00800           0
      4841 MEMB     37       POPC     C11      CTL2    -0.800000E-01   12.0110           0
      4842 MEMB     37       POPC     H11A     HAL2     0.900000E-01   1.00800           0
      4843 MEMB     37       POPC     H11B     HAL2     0.900000E-01   1.00800           0
      4844 MEMB     37       POPC     P        PL        1.50000       30.9740           0
      4845 MEMB     37       POPC     O13      O2L     -0.780000       15.9994           0
      4846 MEMB     37       POPC     O14      O2L     -0.780000       15.9994           0
      4847 MEMB     37       POPC     O12      OSLP    -0.570000       15.9994           0
      4848 MEMB     37       POPC     O11      OSLP    -0.570000       15.9994           0
      4849 MEMB     37       POPC     C1       CTL2    -0.800000E-01   12.0110           0
      4850 MEMB     37       POPC     HA       HAL2     0.900000E-01   1.00800           0
      4851 MEMB     37       POPC     HB       HAL2     0.900000E-01   1.00800           0
      4852 MEMB     37       POPC     C2       CTL1     0.170000       12.0110           0
      4853 MEMB     37       POPC     HS       HAL1     0.900000E-01   1.00800           0
      4854 MEMB     37       POPC     O21      OSL     -0.490000       15.9994           0
      4855 MEMB     37       POPC     C21      CL       0.900000       12.0110           0
      4856 MEMB     37       POPC     O22      OBL     -0.630000       15.9994           0
      4857 MEMB     37       POPC     C22      CTL2    -0.220000       12.0110           0
      4858 MEMB     37       POPC     H2R      HAL2     0.900000E-01   1.00800           0
      4859 MEMB     37       POPC     H2S      HAL2     0.900000E-01   1.00800           0
      4860 MEMB     37       POPC     C3       CTL2     0.800000E-01   12.0110           0
      4861 MEMB     37       POPC     HX       HAL2     0.900000E-01   1.00800           0
      4862 MEMB     37       POPC     HY       HAL2     0.900000E-01   1.00800           0
      4863 MEMB     37       POPC     O31      OSL     -0.490000       15.9994           0
      4864 MEMB     37       POPC     C31      CL       0.900000       12.0110           0
      4865 MEMB     37       POPC     O32      OBL     -0.630000       15.9994           0
      4866 MEMB     37       POPC     C32      CTL2    -0.220000       12.0110           0
      4867 MEMB     37       POPC     H2X      HAL2     0.900000E-01   1.00800           0
      4868 MEMB     37       POPC     H2Y      HAL2     0.900000E-01   1.00800           0
      4869 MEMB     37       POPC     C23      CTL2    -0.180000       12.0110           0
      4870 MEMB     37       POPC     H3R      HAL2     0.900000E-01   1.00800           0
      4871 MEMB     37       POPC     H3S      HAL2     0.900000E-01   1.00800           0
      4872 MEMB     37       POPC     C24      CTL2    -0.180000       12.0110           0
      4873 MEMB     37       POPC     H4R      HAL2     0.900000E-01   1.00800           0
      4874 MEMB     37       POPC     H4S      HAL2     0.900000E-01   1.00800           0
      4875 MEMB     37       POPC     C25      CTL2    -0.180000       12.0110           0
      4876 MEMB     37       POPC     H5R      HAL2     0.900000E-01   1.00800           0
      4877 MEMB     37       POPC     H5S      HAL2     0.900000E-01   1.00800           0
      4878 MEMB     37       POPC     C26      CTL2    -0.180000       12.0110           0
      4879 MEMB     37       POPC     H6R      HAL2     0.900000E-01   1.00800           0
      4880 MEMB     37       POPC     H6S      HAL2     0.900000E-01   1.00800           0
      4881 MEMB     37       POPC     C27      CTL2    -0.180000       12.0110           0
      4882 MEMB     37       POPC     H7R      HAL2     0.900000E-01   1.00800           0
      4883 MEMB     37       POPC     H7S      HAL2     0.900000E-01   1.00800           0
      4884 MEMB     37       POPC     C28      CTL2    -0.180000       12.0110           0
      4885 MEMB     37       POPC     H8R      HAL2     0.900000E-01   1.00800           0
      4886 MEMB     37       POPC     H8S      HAL2     0.900000E-01   1.00800           0
      4887 MEMB     37       POPC     C29      CEL1    -0.150000       12.0110           0
      4888 MEMB     37       POPC     H91      HEL1     0.150000       1.00800           0
      4889 MEMB     37       POPC     C210     CEL1    -0.150000       12.0110           0
      4890 MEMB     37       POPC     H101     HEL1     0.150000       1.00800           0
      4891 MEMB     37       POPC     C211     CTL2    -0.180000       12.0110           0
      4892 MEMB     37       POPC     H11R     HAL2     0.900000E-01   1.00800           0
      4893 MEMB     37       POPC     H11S     HAL2     0.900000E-01   1.00800           0
      4894 MEMB     37       POPC     C212     CTL2    -0.180000       12.0110           0
      4895 MEMB     37       POPC     H12R     HAL2     0.900000E-01   1.00800           0
      4896 MEMB     37       POPC     H12S     HAL2     0.900000E-01   1.00800           0
      4897 MEMB     37       POPC     C213     CTL2    -0.180000       12.0110           0
      4898 MEMB     37       POPC     H13R     HAL2     0.900000E-01   1.00800           0
      4899 MEMB     37       POPC     H13S     HAL2     0.900000E-01   1.00800           0
      4900 MEMB     37       POPC     C214     CTL2    -0.180000       12.0110           0
      4901 MEMB     37       POPC     H14R     HAL2     0.900000E-01   1.00800           0
      4902 MEMB     37       POPC     H14S     HAL2     0.900000E-01   1.00800           0
      4903 MEMB     37       POPC     C215     CTL2    -0.180000       12.0110           0
      4904 MEMB     37       POPC     H15R     HAL2     0.900000E-01   1.00800           0
      4905 MEMB     37       POPC     H15S     HAL2     0.900000E-01   1.00800           0
      4906 MEMB     37       POPC     C216     CTL2    -0.180000       12.0110           0
      4907 MEMB     37       POPC     H16R     HAL2     0.900000E-01   1.00800           0
      4908 MEMB     37       POPC     H16S     HAL2     0.900000E-01   1.00800           0
      4909 MEMB     37       POPC     C217     CTL2    -0.180000       12.0110           0
      4910 MEMB     37       POPC     H17R     HAL2     0.900000E-01   1.00800           0
      4911 MEMB     37       POPC     H17S     HAL2     0.900000E-01   1.00800           0
      4912 MEMB     37       POPC     C218     CTL3    -0.270000       12.0110           0
      4913 MEMB     37       POPC     H18R     HAL3     0.900000E-01   1.00800           0
      4914 MEMB     37       POPC     H18S     HAL3     0.900000E-01   1.00800           0
      4915 MEMB     37       POPC     H18T     HAL3     0.900000E-01   1.00800           0
      4916 MEMB     37       POPC     C33      CTL2    -0.180000       12.0110           0
      4917 MEMB     37       POPC     H3X      HAL2     0.900000E-01   1.00800           0
      4918 MEMB     37       POPC     H3Y      HAL2     0.900000E-01   1.00800           0
      4919 MEMB     37       POPC     C34      CTL2    -0.180000       12.0110           0
      4920 MEMB     37       POPC     H4X      HAL2     0.900000E-01   1.00800           0
      4921 MEMB     37       POPC     H4Y      HAL2     0.900000E-01   1.00800           0
      4922 MEMB     37       POPC     C35      CTL2    -0.180000       12.0110           0
      4923 MEMB     37       POPC     H5X      HAL2     0.900000E-01   1.00800           0
      4924 MEMB     37       POPC     H5Y      HAL2     0.900000E-01   1.00800           0
      4925 MEMB     37       POPC     C36      CTL2    -0.180000       12.0110           0
      4926 MEMB     37       POPC     H6X      HAL2     0.900000E-01   1.00800           0
      4927 MEMB     37       POPC     H6Y      HAL2     0.900000E-01   1.00800           0
      4928 MEMB     37       POPC     C37      CTL2    -0.180000       12.0110           0
      4929 MEMB     37       POPC     H7X      HAL2     0.900000E-01   1.00800           0
      4930 MEMB     37       POPC     H7Y      HAL2     0.900000E-01   1.00800           0
      4931 MEMB     37       POPC     C38      CTL2    -0.180000       12.0110           0
      4932 MEMB     37       POPC     H8X      HAL2     0.900000E-01   1.00800           0
      4933 MEMB     37       POPC     H8Y      HAL2     0.900000E-01   1.00800           0
      4934 MEMB     37       POPC     C39      CTL2    -0.180000       12.0110           0
      4935 MEMB     37       POPC     H9X      HAL2     0.900000E-01   1.00800           0
      4936 MEMB     37       POPC     H9Y      HAL2     0.900000E-01   1.00800           0
      4937 MEMB     37       POPC     C310     CTL2    -0.180000       12.0110           0
      4938 MEMB     37       POPC     H10X     HAL2     0.900000E-01   1.00800           0
      4939 MEMB     37       POPC     H10Y     HAL2     0.900000E-01   1.00800           0
      4940 MEMB     37       POPC     C311     CTL2    -0.180000       12.0110           0
      4941 MEMB     37       POPC     H11X     HAL2     0.900000E-01   1.00800           0
      4942 MEMB     37       POPC     H11Y     HAL2     0.900000E-01   1.00800           0
      4943 MEMB     37       POPC     C312     CTL2    -0.180000       12.0110           0
      4944 MEMB     37       POPC     H12X     HAL2     0.900000E-01   1.00800           0
      4945 MEMB     37       POPC     H12Y     HAL2     0.900000E-01   1.00800           0
      4946 MEMB     37       POPC     C313     CTL2    -0.180000       12.0110           0
      4947 MEMB     37       POPC     H13X     HAL2     0.900000E-01   1.00800           0
      4948 MEMB     37       POPC     H13Y     HAL2     0.900000E-01   1.00800           0
      4949 MEMB     37       POPC     C314     CTL2    -0.180000       12.0110           0
      4950 MEMB     37       POPC     H14X     HAL2     0.900000E-01   1.00800           0
      4951 MEMB     37       POPC     H14Y     HAL2     0.900000E-01   1.00800           0
      4952 MEMB     37       POPC     C315     CTL2    -0.180000       12.0110           0
      4953 MEMB     37       POPC     H15X     HAL2     0.900000E-01   1.00800           0
      4954 MEMB     37       POPC     H15Y     HAL2     0.900000E-01   1.00800           0
      4955 MEMB     37       POPC     C316     CTL3    -0.270000       12.0110           0
      4956 MEMB     37       POPC     H16X     HAL3     0.900000E-01   1.00800           0
      4957 MEMB     37       POPC     H16Y     HAL3     0.900000E-01   1.00800           0
      4958 MEMB     37       POPC     H16Z     HAL3     0.900000E-01   1.00800           0
      4959 MEMB     38       POPC     N        NTL     -0.600000       14.0070           0
      4960 MEMB     38       POPC     C12      CTL2    -0.100000       12.0110           0
      4961 MEMB     38       POPC     H12A     HL       0.250000       1.00800           0
      4962 MEMB     38       POPC     H12B     HL       0.250000       1.00800           0
      4963 MEMB     38       POPC     C13      CTL5    -0.350000       12.0110           0
      4964 MEMB     38       POPC     H13A     HL       0.250000       1.00800           0
      4965 MEMB     38       POPC     H13B     HL       0.250000       1.00800           0
      4966 MEMB     38       POPC     H13C     HL       0.250000       1.00800           0
      4967 MEMB     38       POPC     C14      CTL5    -0.350000       12.0110           0
      4968 MEMB     38       POPC     H14A     HL       0.250000       1.00800           0
      4969 MEMB     38       POPC     H14B     HL       0.250000       1.00800           0
      4970 MEMB     38       POPC     H14C     HL       0.250000       1.00800           0
      4971 MEMB     38       POPC     C15      CTL5    -0.350000       12.0110           0
      4972 MEMB     38       POPC     H15A     HL       0.250000       1.00800           0
      4973 MEMB     38       POPC     H15B     HL       0.250000       1.00800           0
      4974 MEMB     38       POPC     H15C     HL       0.250000       1.00800           0
      4975 MEMB     38       POPC     C11      CTL2    -0.800000E-01   12.0110           0
      4976 MEMB     38       POPC     H11A     HAL2     0.900000E-01   1.00800           0
      4977 MEMB     38       POPC     H11B     HAL2     0.900000E-01   1.00800           0
      4978 MEMB     38       POPC     P        PL        1.50000       30.9740           0
      4979 MEMB     38       POPC     O13      O2L     -0.780000       15.9994           0
      4980 MEMB     38       POPC     O14      O2L     -0.780000       15.9994           0
      4981 MEMB     38       POPC     O12      OSLP    -0.570000       15.9994           0
      4982 MEMB     38       POPC     O11      OSLP    -0.570000       15.9994           0
      4983 MEMB     38       POPC     C1       CTL2    -0.800000E-01   12.0110           0
      4984 MEMB     38       POPC     HA       HAL2     0.900000E-01   1.00800           0
      4985 MEMB     38       POPC     HB       HAL2     0.900000E-01   1.00800           0
      4986 MEMB     38       POPC     C2       CTL1     0.170000       12.0110           0
      4987 MEMB     38       POPC     HS       HAL1     0.900000E-01   1.00800           0
      4988 MEMB     38       POPC     O21      OSL     -0.490000       15.9994           0
      4989 MEMB     38       POPC     C21      CL       0.900000       12.0110           0
      4990 MEMB     38       POPC     O22      OBL     -0.630000       15.9994           0
      4991 MEMB     38       POPC     C22      CTL2    -0.220000       12.0110           0
      4992 MEMB     38       POPC     H2R      HAL2     0.900000E-01   1.00800           0
      4993 MEMB     38       POPC     H2S      HAL2     0.900000E-01   1.00800           0
      4994 MEMB     38       POPC     C3       CTL2     0.800000E-01   12.0110           0
      4995 MEMB     38       POPC     HX       HAL2     0.900000E-01   1.00800           0
      4996 MEMB     38       POPC     HY       HAL2     0.900000E-01   1.00800           0
      4997 MEMB     38       POPC     O31      OSL     -0.490000       15.9994           0
      4998 MEMB     38       POPC     C31      CL       0.900000       12.0110           0
      4999 MEMB     38       POPC     O32      OBL     -0.630000       15.9994           0
      5000 MEMB     38       POPC     C32      CTL2    -0.220000       12.0110           0
      5001 MEMB     38       POPC     H2X      HAL2     0.900000E-01   1.00800           0
      5002 MEMB     38       POPC     H2Y      HAL2     0.900000E-01   1.00800           0
      5003 MEMB     38       POPC     C23      CTL2    -0.180000       12.0110           0
      5004 MEMB     38       POPC     H3R      HAL2     0.900000E-01   1.00800           0
      5005 MEMB     38       POPC     H3S      HAL2     0.900000E-01   1.00800           0
      5006 MEMB     38       POPC     C24      CTL2    -0.180000       12.0110           0
      5007 MEMB     38       POPC     H4R      HAL2     0.900000E-01   1.00800           0
      5008 MEMB     38       POPC     H4S      HAL2     0.900000E-01   1.00800           0
      5009 MEMB     38       POPC     C25      CTL2    -0.180000       12.0110           0
      5010 MEMB     38       POPC     H5R      HAL2     0.900000E-01   1.00800           0
      5011 MEMB     38       POPC     H5S      HAL2     0.900000E-01   1.00800           0
      5012 MEMB     38       POPC     C26      CTL2    -0.180000       12.0110           0
      5013 MEMB     38       POPC     H6R      HAL2     0.900000E-01   1.00800           0
      5014 MEMB     38       POPC     H6S      HAL2     0.900000E-01   1.00800           0
      5015 MEMB     38       POPC     C27      CTL2    -0.180000       12.0110           0
      5016 MEMB     38       POPC     H7R      HAL2     0.900000E-01   1.00800           0
      5017 MEMB     38       POPC     H7S      HAL2     0.900000E-01   1.00800           0
      5018 MEMB     38       POPC     C28      CTL2    -0.180000       12.0110           0
      5019 MEMB     38       POPC     H8R      HAL2     0.900000E-01   1.00800           0
      5020 MEMB     38       POPC     H8S      HAL2     0.900000E-01   1.00800           0
      5021 MEMB     38       POPC     C29      CEL1    -0.150000       12.0110           0
      5022 MEMB     38       POPC     H91      HEL1     0.150000       1.00800           0
      5023 MEMB     38       POPC     C210     CEL1    -0.150000       12.0110           0
      5024 MEMB     38       POPC     H101     HEL1     0.150000       1.00800           0
      5025 MEMB     38       POPC     C211     CTL2    -0.180000       12.0110           0
      5026 MEMB     38       POPC     H11R     HAL2     0.900000E-01   1.00800           0
      5027 MEMB     38       POPC     H11S     HAL2     0.900000E-01   1.00800           0
      5028 MEMB     38       POPC     C212     CTL2    -0.180000       12.0110           0
      5029 MEMB     38       POPC     H12R     HAL2     0.900000E-01   1.00800           0
      5030 MEMB     38       POPC     H12S     HAL2     0.900000E-01   1.00800           0
      5031 MEMB     38       POPC     C213     CTL2    -0.180000       12.0110           0
      5032 MEMB     38       POPC     H13R     HAL2     0.900000E-01   1.00800           0
      5033 MEMB     38       POPC     H13S     HAL2     0.900000E-01   1.00800           0
      5034 MEMB     38       POPC     C214     CTL2    -0.180000       12.0110           0
      5035 MEMB     38       POPC     H14R     HAL2     0.900000E-01   1.00800           0
      5036 MEMB     38       POPC     H14S     HAL2     0.900000E-01   1.00800           0
      5037 MEMB     38       POPC     C215     CTL2    -0.180000       12.0110           0
      5038 MEMB     38       POPC     H15R     HAL2     0.900000E-01   1.00800           0
      5039 MEMB     38       POPC     H15S     HAL2     0.900000E-01   1.00800           0
      5040 MEMB     38       POPC     C216     CTL2    -0.180000       12.0110           0
      5041 MEMB     38       POPC     H16R     HAL2     0.900000E-01   1.00800           0
      5042 MEMB     38       POPC     H16S     HAL2     0.900000E-01   1.00800           0
      5043 MEMB     38       POPC     C217     CTL2    -0.180000       12.0110           0
      5044 MEMB     38       POPC     H17R     HAL2     0.900000E-01   1.00800           0
      5045 MEMB     38       POPC     H17S     HAL2     0.900000E-01   1.00800           0
      5046 MEMB     38       POPC     C218     CTL3    -0.270000       12.0110           0
      5047 MEMB     38       POPC     H18R     HAL3     0.900000E-01   1.00800           0
      5048 MEMB     38       POPC     H18S     HAL3     0.900000E-01   1.00800           0
      5049 MEMB     38       POPC     H18T     HAL3     0.900000E-01   1.00800           0
      5050 MEMB     38       POPC     C33      CTL2    -0.180000       12.0110           0
      5051 MEMB     38       POPC     H3X      HAL2     0.900000E-01   1.00800           0
      5052 MEMB     38       POPC     H3Y      HAL2     0.900000E-01   1.00800           0
      5053 MEMB     38       POPC     C34      CTL2    -0.180000       12.0110           0
      5054 MEMB     38       POPC     H4X      HAL2     0.900000E-01   1.00800           0
      5055 MEMB     38       POPC     H4Y      HAL2     0.900000E-01   1.00800           0
      5056 MEMB     38       POPC     C35      CTL2    -0.180000       12.0110           0
      5057 MEMB     38       POPC     H5X      HAL2     0.900000E-01   1.00800           0
      5058 MEMB     38       POPC     H5Y      HAL2     0.900000E-01   1.00800           0
      5059 MEMB     38       POPC     C36      CTL2    -0.180000       12.0110           0
      5060 MEMB     38       POPC     H6X      HAL2     0.900000E-01   1.00800           0
      5061 MEMB     38       POPC     H6Y      HAL2     0.900000E-01   1.00800           0
      5062 MEMB     38       POPC     C37      CTL2    -0.180000       12.0110           0
      5063 MEMB     38       POPC     H7X      HAL2     0.900000E-01   1.00800           0
      5064 MEMB     38       POPC     H7Y      HAL2     0.900000E-01   1.00800           0
      5065 MEMB     38       POPC     C38      CTL2    -0.180000       12.0110           0
      5066 MEMB     38       POPC     H8X      HAL2     0.900000E-01   1.00800           0
      5067 MEMB     38       POPC     H8Y      HAL2     0.900000E-01   1.00800           0
      5068 MEMB     38       POPC     C39      CTL2    -0.180000       12.0110           0
      5069 MEMB     38       POPC     H9X      HAL2     0.900000E-01   1.00800           0
      5070 MEMB     38       POPC     H9Y      HAL2     0.900000E-01   1.00800           0
      5071 MEMB     38       POPC     C310     CTL2    -0.180000       12.0110           0
      5072 MEMB     38       POPC     H10X     HAL2     0.900000E-01   1.00800           0
      5073 MEMB     38       POPC     H10Y     HAL2     0.900000E-01   1.00800           0
      5074 MEMB     38       POPC     C311     CTL2    -0.180000       12.0110           0
      5075 MEMB     38       POPC     H11X     HAL2     0.900000E-01   1.00800           0
      5076 MEMB     38       POPC     H11Y     HAL2     0.900000E-01   1.00800           0
      5077 MEMB     38       POPC     C312     CTL2    -0.180000       12.0110           0
      5078 MEMB     38       POPC     H12X     HAL2     0.900000E-01   1.00800           0
      5079 MEMB     38       POPC     H12Y     HAL2     0.900000E-01   1.00800           0
      5080 MEMB     38       POPC     C313     CTL2    -0.180000       12.0110           0
      5081 MEMB     38       POPC     H13X     HAL2     0.900000E-01   1.00800           0
      5082 MEMB     38       POPC     H13Y     HAL2     0.900000E-01   1.00800           0
      5083 MEMB     38       POPC     C314     CTL2    -0.180000       12.0110           0
      5084 MEMB     38       POPC     H14X     HAL2     0.900000E-01   1.00800           0
      5085 MEMB     38       POPC     H14Y     HAL2     0.900000E-01   1.00800           0
      5086 MEMB     38       POPC     C315     CTL2    -0.180000       12.0110           0
      5087 MEMB     38       POPC     H15X     HAL2     0.900000E-01   1.00800           0
      5088 MEMB     38       POPC     H15Y     HAL2     0.900000E-01   1.00800           0
      5089 MEMB     38       POPC     C316     CTL3    -0.270000       12.0110           0
      5090 MEMB     38       POPC     H16X     HAL3     0.900000E-01   1.00800           0
      5091 MEMB     38       POPC     H16Y     HAL3     0.900000E-01   1.00800           0
      5092 MEMB     38       POPC     H16Z     HAL3     0.900000E-01   1.00800           0
      5093 MEMB     39       POPC     N        NTL     -0.600000       14.0070           0
      5094 MEMB     39       POPC     C12      CTL2    -0.100000       12.0110           0
      5095 MEMB     39       POPC     H12A     HL       0.250000       1.00800           0
      5096 MEMB     39       POPC     H12B     HL       0.250000       1.00800           0
      5097 MEMB     39       POPC     C13      CTL5    -0.350000       12.0110           0
      5098 MEMB     39       POPC     H13A     HL       0.250000       1.00800           0
      5099 MEMB     39       POPC     H13B     HL       0.250000       1.00800           0
      5100 MEMB     39       POPC     H13C     HL       0.250000       1.00800           0
      5101 MEMB     39       POPC     C14      CTL5    -0.350000       12.0110           0
      5102 MEMB     39       POPC     H14A     HL       0.250000       1.00800           0
      5103 MEMB     39       POPC     H14B     HL       0.250000       1.00800           0
      5104 MEMB     39       POPC     H14C     HL       0.250000       1.00800           0
      5105 MEMB     39       POPC     C15      CTL5    -0.350000       12.0110           0
      5106 MEMB     39       POPC     H15A     HL       0.250000       1.00800           0
      5107 MEMB     39       POPC     H15B     HL       0.250000       1.00800           0
      5108 MEMB     39       POPC     H15C     HL       0.250000       1.00800           0
      5109 MEMB     39       POPC     C11      CTL2    -0.800000E-01   12.0110           0
      5110 MEMB     39       POPC     H11A     HAL2     0.900000E-01   1.00800           0
      5111 MEMB     39       POPC     H11B     HAL2     0.900000E-01   1.00800           0
      5112 MEMB     39       POPC     P        PL        1.50000       30.9740           0
      5113 MEMB     39       POPC     O13      O2L     -0.780000       15.9994           0
      5114 MEMB     39       POPC     O14      O2L     -0.780000       15.9994           0
      5115 MEMB     39       POPC     O12      OSLP    -0.570000       15.9994           0
      5116 MEMB     39       POPC     O11      OSLP    -0.570000       15.9994           0
      5117 MEMB     39       POPC     C1       CTL2    -0.800000E-01   12.0110           0
      5118 MEMB     39       POPC     HA       HAL2     0.900000E-01   1.00800           0
      5119 MEMB     39       POPC     HB       HAL2     0.900000E-01   1.00800           0
      5120 MEMB     39       POPC     C2       CTL1     0.170000       12.0110           0
      5121 MEMB     39       POPC     HS       HAL1     0.900000E-01   1.00800           0
      5122 MEMB     39       POPC     O21      OSL     -0.490000       15.9994           0
      5123 MEMB     39       POPC     C21      CL       0.900000       12.0110           0
      5124 MEMB     39       POPC     O22      OBL     -0.630000       15.9994           0
      5125 MEMB     39       POPC     C22      CTL2    -0.220000       12.0110           0
      5126 MEMB     39       POPC     H2R      HAL2     0.900000E-01   1.00800           0
      5127 MEMB     39       POPC     H2S      HAL2     0.900000E-01   1.00800           0
      5128 MEMB     39       POPC     C3       CTL2     0.800000E-01   12.0110           0
      5129 MEMB     39       POPC     HX       HAL2     0.900000E-01   1.00800           0
      5130 MEMB     39       POPC     HY       HAL2     0.900000E-01   1.00800           0
      5131 MEMB     39       POPC     O31      OSL     -0.490000       15.9994           0
      5132 MEMB     39       POPC     C31      CL       0.900000       12.0110           0
      5133 MEMB     39       POPC     O32      OBL     -0.630000       15.9994           0
      5134 MEMB     39       POPC     C32      CTL2    -0.220000       12.0110           0
      5135 MEMB     39       POPC     H2X      HAL2     0.900000E-01   1.00800           0
      5136 MEMB     39       POPC     H2Y      HAL2     0.900000E-01   1.00800           0
      5137 MEMB     39       POPC     C23      CTL2    -0.180000       12.0110           0
      5138 MEMB     39       POPC     H3R      HAL2     0.900000E-01   1.00800           0
      5139 MEMB     39       POPC     H3S      HAL2     0.900000E-01   1.00800           0
      5140 MEMB     39       POPC     C24      CTL2    -0.180000       12.0110           0
      5141 MEMB     39       POPC     H4R      HAL2     0.900000E-01   1.00800           0
      5142 MEMB     39       POPC     H4S      HAL2     0.900000E-01   1.00800           0
      5143 MEMB     39       POPC     C25      CTL2    -0.180000       12.0110           0
      5144 MEMB     39       POPC     H5R      HAL2     0.900000E-01   1.00800           0
      5145 MEMB     39       POPC     H5S      HAL2     0.900000E-01   1.00800           0
      5146 MEMB     39       POPC     C26      CTL2    -0.180000       12.0110           0
      5147 MEMB     39       POPC     H6R      HAL2     0.900000E-01   1.00800           0
      5148 MEMB     39       POPC     H6S      HAL2     0.900000E-01   1.00800           0
      5149 MEMB     39       POPC     C27      CTL2    -0.180000       12.0110           0
      5150 MEMB     39       POPC     H7R      HAL2     0.900000E-01   1.00800           0
      5151 MEMB     39       POPC     H7S      HAL2     0.900000E-01   1.00800           0
      5152 MEMB     39       POPC     C28      CTL2    -0.180000       12.0110           0
      5153 MEMB     39       POPC     H8R      HAL2     0.900000E-01   1.00800           0
      5154 MEMB     39       POPC     H8S      HAL2     0.900000E-01   1.00800           0
      5155 MEMB     39       POPC     C29      CEL1    -0.150000       12.0110           0
      5156 MEMB     39       POPC     H91      HEL1     0.150000       1.00800           0
      5157 MEMB     39       POPC     C210     CEL1    -0.150000       12.0110           0
      5158 MEMB     39       POPC     H101     HEL1     0.150000       1.00800           0
      5159 MEMB     39       POPC     C211     CTL2    -0.180000       12.0110           0
      5160 MEMB     39       POPC     H11R     HAL2     0.900000E-01   1.00800           0
      5161 MEMB     39       POPC     H11S     HAL2     0.900000E-01   1.00800           0
      5162 MEMB     39       POPC     C212     CTL2    -0.180000       12.0110           0
      5163 MEMB     39       POPC     H12R     HAL2     0.900000E-01   1.00800           0
      5164 MEMB     39       POPC     H12S     HAL2     0.900000E-01   1.00800           0
      5165 MEMB     39       POPC     C213     CTL2    -0.180000       12.0110           0
      5166 MEMB     39       POPC     H13R     HAL2     0.900000E-01   1.00800           0
      5167 MEMB     39       POPC     H13S     HAL2     0.900000E-01   1.00800           0
      5168 MEMB     39       POPC     C214     CTL2    -0.180000       12.0110           0
      5169 MEMB     39       POPC     H14R     HAL2     0.900000E-01   1.00800           0
      5170 MEMB     39       POPC     H14S     HAL2     0.900000E-01   1.00800           0
      5171 MEMB     39       POPC     C215     CTL2    -0.180000       12.0110           0
      5172 MEMB     39       POPC     H15R     HAL2     0.900000E-01   1.00800           0
      5173 MEMB     39       POPC     H15S     HAL2     0.900000E-01   1.00800           0
      5174 MEMB     39       POPC     C216     CTL2    -0.180000       12.0110           0
      5175 MEMB     39       POPC     H16R     HAL2     0.900000E-01   1.00800           0
      5176 MEMB     39       POPC     H16S     HAL2     0.900000E-01   1.00800           0
      5177 MEMB     39       POPC     C217     CTL2    -0.180000       12.0110           0
      5178 MEMB     39       POPC     H17R     HAL2     0.900000E-01   1.00800           0
      5179 MEMB     39       POPC     H17S     HAL2     0.900000E-01   1.00800           0
      5180 MEMB     39       POPC     C218     CTL3    -0.270000       12.0110           0
      5181 MEMB     39       POPC     H18R     HAL3     0.900000E-01   1.00800           0
      5182 MEMB     39       POPC     H18S     HAL3     0.900000E-01   1.00800           0
      5183 MEMB     39       POPC     H18T     HAL3     0.900000E-01   1.00800           0
      5184 MEMB     39       POPC     C33      CTL2    -0.180000       12.0110           0
      5185 MEMB     39       POPC     H3X      HAL2     0.900000E-01   1.00800           0
      5186 MEMB     39       POPC     H3Y      HAL2     0.900000E-01   1.00800           0
      5187 MEMB     39       POPC     C34      CTL2    -0.180000       12.0110           0
      5188 MEMB     39       POPC     H4X      HAL2     0.900000E-01   1.00800           0
      5189 MEMB     39       POPC     H4Y      HAL2     0.900000E-01   1.00800           0
      5190 MEMB     39       POPC     C35      CTL2    -0.180000       12.0110           0
      5191 MEMB     39       POPC     H5X      HAL2     0.900000E-01   1.00800           0
      5192 MEMB     39       POPC     H5Y      HAL2     0.900000E-01   1.00800           0
      5193 MEMB     39       POPC     C36      CTL2    -0.180000       12.0110           0
      5194 MEMB     39       POPC     H6X      HAL2     0.900000E-01   1.00800           0
      5195 MEMB     39       POPC     H6Y      HAL2     0.900000E-01   1.00800           0
      5196 MEMB     39       POPC     C37      CTL2    -0.180000       12.0110           0
      5197 MEMB     39       POPC     H7X      HAL2     0.900000E-01   1.00800           0
      5198 MEMB     39       POPC     H7Y      HAL2     0.900000E-01   1.00800           0
      5199 MEMB     39       POPC     C38      CTL2    -0.180000       12.0110           0
      5200 MEMB     39       POPC     H8X      HAL2     0.900000E-01   1.00800           0
      5201 MEMB     39       POPC     H8Y      HAL2     0.900000E-01   1.00800           0
      5202 MEMB     39       POPC     C39      CTL2    -0.180000       12.0110           0
      5203 MEMB     39       POPC     H9X      HAL2     0.900000E-01   1.00800           0
      5204 MEMB     39       POPC     H9Y      HAL2     0.900000E-01   1.00800           0
      5205 MEMB     39       POPC     C310     CTL2    -0.180000       12.0110           0
      5206 MEMB     39       POPC     H10X     HAL2     0.900000E-01   1.00800           0
      5207 MEMB     39       POPC     H10Y     HAL2     0.900000E-01   1.00800           0
      5208 MEMB     39       POPC     C311     CTL2    -0.180000       12.0110           0
      5209 MEMB     39       POPC     H11X     HAL2     0.900000E-01   1.00800           0
      5210 MEMB     39       POPC     H11Y     HAL2     0.900000E-01   1.00800           0
      5211 MEMB     39       POPC     C312     CTL2    -0.180000       12.0110           0
      5212 MEMB     39       POPC     H12X     HAL2     0.900000E-01   1.00800           0
      5213 MEMB     39       POPC     H12Y     HAL2     0.900000E-01   1.00800           0
      5214 MEMB     39       POPC     C313     CTL2    -0.180000       12.0110           0
      5215 MEMB     39       POPC     H13X     HAL2     0.900000E-01   1.00800           0
      5216 MEMB     39       POPC     H13Y     HAL2     0.900000E-01   1.00800           0
      5217 MEMB     39       POPC     C314     CTL2    -0.180000       12.0110           0
      5218 MEMB     39       POPC     H14X     HAL2     0.900000E-01   1.00800           0
      5219 MEMB     39       POPC     H14Y     HAL2     0.900000E-01   1.00800           0
      5220 MEMB     39       POPC     C315     CTL2    -0.180000       12.0110           0
      5221 MEMB     39       POPC     H15X     HAL2     0.900000E-01   1.00800           0
      5222 MEMB     39       POPC     H15Y     HAL2     0.900000E-01   1.00800           0
      5223 MEMB     39       POPC     C316     CTL3    -0.270000       12.0110           0
      5224 MEMB     39       POPC     H16X     HAL3     0.900000E-01   1.00800           0
      5225 MEMB     39       POPC     H16Y     HAL3     0.900000E-01   1.00800           0
      5226 MEMB     39       POPC     H16Z     HAL3     0.900000E-01   1.00800           0
      5227 MEMB     40       POPC     N        NTL     -0.600000       14.0070           0
      5228 MEMB     40       POPC     C12      CTL2    -0.100000       12.0110           0
      5229 MEMB     40       POPC     H12A     HL       0.250000       1.00800           0
      5230 MEMB     40       POPC     H12B     HL       0.250000       1.00800           0
      5231 MEMB     40       POPC     C13      CTL5    -0.350000       12.0110           0
      5232 MEMB     40       POPC     H13A     HL       0.250000       1.00800           0
      5233 MEMB     40       POPC     H13B     HL       0.250000       1.00800           0
      5234 MEMB     40       POPC     H13C     HL       0.250000       1.00800           0
      5235 MEMB     40       POPC     C14      CTL5    -0.350000       12.0110           0
      5236 MEMB     40       POPC     H14A     HL       0.250000       1.00800           0
      5237 MEMB     40       POPC     H14B     HL       0.250000       1.00800           0
      5238 MEMB     40       POPC     H14C     HL       0.250000       1.00800           0
      5239 MEMB     40       POPC     C15      CTL5    -0.350000       12.0110           0
      5240 MEMB     40       POPC     H15A     HL       0.250000       1.00800           0
      5241 MEMB     40       POPC     H15B     HL       0.250000       1.00800           0
      5242 MEMB     40       POPC     H15C     HL       0.250000       1.00800           0
      5243 MEMB     40       POPC     C11      CTL2    -0.800000E-01   12.0110           0
      5244 MEMB     40       POPC     H11A     HAL2     0.900000E-01   1.00800           0
      5245 MEMB     40       POPC     H11B     HAL2     0.900000E-01   1.00800           0
      5246 MEMB     40       POPC     P        PL        1.50000       30.9740           0
      5247 MEMB     40       POPC     O13      O2L     -0.780000       15.9994           0
      5248 MEMB     40       POPC     O14      O2L     -0.780000       15.9994           0
      5249 MEMB     40       POPC     O12      OSLP    -0.570000       15.9994           0
      5250 MEMB     40       POPC     O11      OSLP    -0.570000       15.9994           0
      5251 MEMB     40       POPC     C1       CTL2    -0.800000E-01   12.0110           0
      5252 MEMB     40       POPC     HA       HAL2     0.900000E-01   1.00800           0
      5253 MEMB     40       POPC     HB       HAL2     0.900000E-01   1.00800           0
      5254 MEMB     40       POPC     C2       CTL1     0.170000       12.0110           0
      5255 MEMB     40       POPC     HS       HAL1     0.900000E-01   1.00800           0
      5256 MEMB     40       POPC     O21      OSL     -0.490000       15.9994           0
      5257 MEMB     40       POPC     C21      CL       0.900000       12.0110           0
      5258 MEMB     40       POPC     O22      OBL     -0.630000       15.9994           0
      5259 MEMB     40       POPC     C22      CTL2    -0.220000       12.0110           0
      5260 MEMB     40       POPC     H2R      HAL2     0.900000E-01   1.00800           0
      5261 MEMB     40       POPC     H2S      HAL2     0.900000E-01   1.00800           0
      5262 MEMB     40       POPC     C3       CTL2     0.800000E-01   12.0110           0
      5263 MEMB     40       POPC     HX       HAL2     0.900000E-01   1.00800           0
      5264 MEMB     40       POPC     HY       HAL2     0.900000E-01   1.00800           0
      5265 MEMB     40       POPC     O31      OSL     -0.490000       15.9994           0
      5266 MEMB     40       POPC     C31      CL       0.900000       12.0110           0
      5267 MEMB     40       POPC     O32      OBL     -0.630000       15.9994           0
      5268 MEMB     40       POPC     C32      CTL2    -0.220000       12.0110           0
      5269 MEMB     40       POPC     H2X      HAL2     0.900000E-01   1.00800           0
      5270 MEMB     40       POPC     H2Y      HAL2     0.900000E-01   1.00800           0
      5271 MEMB     40       POPC     C23      CTL2    -0.180000       12.0110           0
      5272 MEMB     40       POPC     H3R      HAL2     0.900000E-01   1.00800           0
      5273 MEMB     40       POPC     H3S      HAL2     0.900000E-01   1.00800           0
      5274 MEMB     40       POPC     C24      CTL2    -0.180000       12.0110           0
      5275 MEMB     40       POPC     H4R      HAL2     0.900000E-01   1.00800           0
      5276 MEMB     40       POPC     H4S      HAL2     0.900000E-01   1.00800           0
      5277 MEMB     40       POPC     C25      CTL2    -0.180000       12.0110           0
      5278 MEMB     40       POPC     H5R      HAL2     0.900000E-01   1.00800           0
      5279 MEMB     40       POPC     H5S      HAL2     0.900000E-01   1.00800           0
      5280 MEMB     40       POPC     C26      CTL2    -0.180000       12.0110           0
      5281 MEMB     40       POPC     H6R      HAL2     0.900000E-01   1.00800           0
      5282 MEMB     40       POPC     H6S      HAL2     0.900000E-01   1.00800           0
      5283 MEMB     40       POPC     C27      CTL2    -0.180000       12.0110           0
      5284 MEMB     40       POPC     H7R      HAL2     0.900000E-01   1.00800           0
      5285 MEMB     40       POPC     H7S      HAL2     0.900000E-01   1.00800           0
      5286 MEMB     40       POPC     C28      CTL2    -0.180000       12.0110           0
      5287 MEMB     40       POPC     H8R      HAL2     0.900000E-01   1.00800           0
      5288 MEMB     40       POPC     H8S      HAL2     0.900000E-01   1.00800           0
      5289 MEMB     40       POPC     C29      CEL1    -0.150000       12.0110           0
      5290 MEMB     40       POPC     H91      HEL1     0.150000       1.00800           0
      5291 MEMB     40       POPC     C210     CEL1    -0.150000       12.0110           0
      5292 MEMB     40       POPC     H101     HEL1     0.150000       1.00800           0
      5293 MEMB     40       POPC     C211     CTL2    -0.180000       12.0110           0
      5294 MEMB     40       POPC     H11R     HAL2     0.900000E-01   1.00800           0
      5295 MEMB     40       POPC     H11S     HAL2     0.900000E-01   1.00800           0
      5296 MEMB     40       POPC     C212     CTL2    -0.180000       12.0110           0
      5297 MEMB     40       POPC     H12R     HAL2     0.900000E-01   1.00800           0
      5298 MEMB     40       POPC     H12S     HAL2     0.900000E-01   1.00800           0
      5299 MEMB     40       POPC     C213     CTL2    -0.180000       12.0110           0
      5300 MEMB     40       POPC     H13R     HAL2     0.900000E-01   1.00800           0
      5301 MEMB     40       POPC     H13S     HAL2     0.900000E-01   1.00800           0
      5302 MEMB     40       POPC     C214     CTL2    -0.180000       12.0110           0
      5303 MEMB     40       POPC     H14R     HAL2     0.900000E-01   1.00800           0
      5304 MEMB     40       POPC     H14S     HAL2     0.900000E-01   1.00800           0
      5305 MEMB     40       POPC     C215     CTL2    -0.180000       12.0110           0
      5306 MEMB     40       POPC     H15R     HAL2     0.900000E-01   1.00800           0
      5307 MEMB     40       POPC     H15S     HAL2     0.900000E-01   1.00800           0
      5308 MEMB     40       POPC     C216     CTL2    -0.180000       12.0110           0
      5309 MEMB     40       POPC     H16R     HAL2     0.900000E-01   1.00800           0
      5310 MEMB     40       POPC     H16S     HAL2     0.900000E-01   1.00800           0
      5311 MEMB     40       POPC     C217     CTL2    -0.180000       12.0110           0
      5312 MEMB     40       POPC     H17R     HAL2     0.900000E-01   1.00800           0
      5313 MEMB     40       POPC     H17S     HAL2     0.900000E-01   1.00800           0
      5314 MEMB     40       POPC     C218     CTL3    -0.270000       12.0110           0
      5315 MEMB     40       POPC     H18R     HAL3     0.900000E-01   1.00800           0
      5316 MEMB     40       POPC     H18S     HAL3     0.900000E-01   1.00800           0
      5317 MEMB     40       POPC     H18T     HAL3     0.900000E-01   1.00800           0
      5318 MEMB     40       POPC     C33      CTL2    -0.180000       12.0110           0
      5319 MEMB     40       POPC     H3X      HAL2     0.900000E-01   1.00800           0
      5320 MEMB     40       POPC     H3Y      HAL2     0.900000E-01   1.00800           0
      5321 MEMB     40       POPC     C34      CTL2    -0.180000       12.0110           0
      5322 MEMB     40       POPC     H4X      HAL2     0.900000E-01   1.00800           0
      5323 MEMB     40       POPC     H4Y      HAL2     0.900000E-01   1.00800           0
      5324 MEMB     40       POPC     C35      CTL2    -0.180000       12.0110           0
      5325 MEMB     40       POPC     H5X      HAL2     0.900000E-01   1.00800           0
      5326 MEMB     40       POPC     H5Y      HAL2     0.900000E-01   1.00800           0
      5327 MEMB     40       POPC     C36      CTL2    -0.180000       12.0110           0
      5328 MEMB     40       POPC     H6X      HAL2     0.900000E-01   1.00800           0
      5329 MEMB     40       POPC     H6Y      HAL2     0.900000E-01   1.00800           0
      5330 MEMB     40       POPC     C37      CTL2    -0.180000       12.0110           0
      5331 MEMB     40       POPC     H7X      HAL2     0.900000E-01   1.00800           0
      5332 MEMB     40       POPC     H7Y      HAL2     0.900000E-01   1.00800           0
      5333 MEMB     40       POPC     C38      CTL2    -0.180000       12.0110           0
      5334 MEMB     40       POPC     H8X      HAL2     0.900000E-01   1.00800           0
      5335 MEMB     40       POPC     H8Y      HAL2     0.900000E-01   1.00800           0
      5336 MEMB     40       POPC     C39      CTL2    -0.180000       12.0110           0
      5337 MEMB     40       POPC     H9X      HAL2     0.900000E-01   1.00800           0
      5338 MEMB     40       POPC     H9Y      HAL2     0.900000E-01   1.00800           0
      5339 MEMB     40       POPC     C310     CTL2    -0.180000       12.0110           0
      5340 MEMB     40       POPC     H10X     HAL2     0.900000E-01   1.00800           0
      5341 MEMB     40       POPC     H10Y     HAL2     0.900000E-01   1.00800           0
      5342 MEMB     40       POPC     C311     CTL2    -0.180000       12.0110           0
      5343 MEMB     40       POPC     H11X     HAL2     0.900000E-01   1.00800           0
      5344 MEMB     40       POPC     H11Y     HAL2     0.900000E-01   1.00800           0
      5345 MEMB     40       POPC     C312     CTL2    -0.180000       12.0110           0
      5346 MEMB     40       POPC     H12X     HAL2     0.900000E-01   1.00800           0
      5347 MEMB     40       POPC     H12Y     HAL2     0.900000E-01   1.00800           0
      5348 MEMB     40       POPC     C313     CTL2    -0.180000       12.0110           0
      5349 MEMB     40       POPC     H13X     HAL2     0.900000E-01   1.00800           0
      5350 MEMB     40       POPC     H13Y     HAL2     0.900000E-01   1.00800           0
      5351 MEMB     40       POPC     C314     CTL2    -0.180000       12.0110           0
      5352 MEMB     40       POPC     H14X     HAL2     0.900000E-01   1.00800           0
      5353 MEMB     40       POPC     H14Y     HAL2     0.900000E-01   1.00800           0
      5354 MEMB     40       POPC     C315     CTL2    -0.180000       12.0110           0
      5355 MEMB     40       POPC     H15X     HAL2     0.900000E-01   1.00800           0
      5356 MEMB     40       POPC     H15Y     HAL2     0.900000E-01   1.00800           0
      5357 MEMB     40       POPC     C316     CTL3    -0.270000       12.0110           0
      5358 MEMB     40       POPC     H16X     HAL3     0.900000E-01   1.00800           0
      5359 MEMB     40       POPC     H16Y     HAL3     0.900000E-01   1.00800           0
      5360 MEMB     40       POPC     H16Z     HAL3     0.900000E-01   1.00800           0
      5361 MEMB     41       POPC     N        NTL     -0.600000       14.0070           0
      5362 MEMB     41       POPC     C12      CTL2    -0.100000       12.0110           0
      5363 MEMB     41       POPC     H12A     HL       0.250000       1.00800           0
      5364 MEMB     41       POPC     H12B     HL       0.250000       1.00800           0
      5365 MEMB     41       POPC     C13      CTL5    -0.350000       12.0110           0
      5366 MEMB     41       POPC     H13A     HL       0.250000       1.00800           0
      5367 MEMB     41       POPC     H13B     HL       0.250000       1.00800           0
      5368 MEMB     41       POPC     H13C     HL       0.250000       1.00800           0
      5369 MEMB     41       POPC     C14      CTL5    -0.350000       12.0110           0
      5370 MEMB     41       POPC     H14A     HL       0.250000       1.00800           0
      5371 MEMB     41       POPC     H14B     HL       0.250000       1.00800           0
      5372 MEMB     41       POPC     H14C     HL       0.250000       1.00800           0
      5373 MEMB     41       POPC     C15      CTL5    -0.350000       12.0110           0
      5374 MEMB     41       POPC     H15A     HL       0.250000       1.00800           0
      5375 MEMB     41       POPC     H15B     HL       0.250000       1.00800           0
      5376 MEMB     41       POPC     H15C     HL       0.250000       1.00800           0
      5377 MEMB     41       POPC     C11      CTL2    -0.800000E-01   12.0110           0
      5378 MEMB     41       POPC     H11A     HAL2     0.900000E-01   1.00800           0
      5379 MEMB     41       POPC     H11B     HAL2     0.900000E-01   1.00800           0
      5380 MEMB     41       POPC     P        PL        1.50000       30.9740           0
      5381 MEMB     41       POPC     O13      O2L     -0.780000       15.9994           0
      5382 MEMB     41       POPC     O14      O2L     -0.780000       15.9994           0
      5383 MEMB     41       POPC     O12      OSLP    -0.570000       15.9994           0
      5384 MEMB     41       POPC     O11      OSLP    -0.570000       15.9994           0
      5385 MEMB     41       POPC     C1       CTL2    -0.800000E-01   12.0110           0
      5386 MEMB     41       POPC     HA       HAL2     0.900000E-01   1.00800           0
      5387 MEMB     41       POPC     HB       HAL2     0.900000E-01   1.00800           0
      5388 MEMB     41       POPC     C2       CTL1     0.170000       12.0110           0
      5389 MEMB     41       POPC     HS       HAL1     0.900000E-01   1.00800           0
      5390 MEMB     41       POPC     O21      OSL     -0.490000       15.9994           0
      5391 MEMB     41       POPC     C21      CL       0.900000       12.0110           0
      5392 MEMB     41       POPC     O22      OBL     -0.630000       15.9994           0
      5393 MEMB     41       POPC     C22      CTL2    -0.220000       12.0110           0
      5394 MEMB     41       POPC     H2R      HAL2     0.900000E-01   1.00800           0
      5395 MEMB     41       POPC     H2S      HAL2     0.900000E-01   1.00800           0
      5396 MEMB     41       POPC     C3       CTL2     0.800000E-01   12.0110           0
      5397 MEMB     41       POPC     HX       HAL2     0.900000E-01   1.00800           0
      5398 MEMB     41       POPC     HY       HAL2     0.900000E-01   1.00800           0
      5399 MEMB     41       POPC     O31      OSL     -0.490000       15.9994           0
      5400 MEMB     41       POPC     C31      CL       0.900000       12.0110           0
      5401 MEMB     41       POPC     O32      OBL     -0.630000       15.9994           0
      5402 MEMB     41       POPC     C32      CTL2    -0.220000       12.0110           0
      5403 MEMB     41       POPC     H2X      HAL2     0.900000E-01   1.00800           0
      5404 MEMB     41       POPC     H2Y      HAL2     0.900000E-01   1.00800           0
      5405 MEMB     41       POPC     C23      CTL2    -0.180000       12.0110           0
      5406 MEMB     41       POPC     H3R      HAL2     0.900000E-01   1.00800           0
      5407 MEMB     41       POPC     H3S      HAL2     0.900000E-01   1.00800           0
      5408 MEMB     41       POPC     C24      CTL2    -0.180000       12.0110           0
      5409 MEMB     41       POPC     H4R      HAL2     0.900000E-01   1.00800           0
      5410 MEMB     41       POPC     H4S      HAL2     0.900000E-01   1.00800           0
      5411 MEMB     41       POPC     C25      CTL2    -0.180000       12.0110           0
      5412 MEMB     41       POPC     H5R      HAL2     0.900000E-01   1.00800           0
      5413 MEMB     41       POPC     H5S      HAL2     0.900000E-01   1.00800           0
      5414 MEMB     41       POPC     C26      CTL2    -0.180000       12.0110           0
      5415 MEMB     41       POPC     H6R      HAL2     0.900000E-01   1.00800           0
      5416 MEMB     41       POPC     H6S      HAL2     0.900000E-01   1.00800           0
      5417 MEMB     41       POPC     C27      CTL2    -0.180000       12.0110           0
      5418 MEMB     41       POPC     H7R      HAL2     0.900000E-01   1.00800           0
      5419 MEMB     41       POPC     H7S      HAL2     0.900000E-01   1.00800           0
      5420 MEMB     41       POPC     C28      CTL2    -0.180000       12.0110           0
      5421 MEMB     41       POPC     H8R      HAL2     0.900000E-01   1.00800           0
      5422 MEMB     41       POPC     H8S      HAL2     0.900000E-01   1.00800           0
      5423 MEMB     41       POPC     C29      CEL1    -0.150000       12.0110           0
      5424 MEMB     41       POPC     H91      HEL1     0.150000       1.00800           0
      5425 MEMB     41       POPC     C210     CEL1    -0.150000       12.0110           0
      5426 MEMB     41       POPC     H101     HEL1     0.150000       1.00800           0
      5427 MEMB     41       POPC     C211     CTL2    -0.180000       12.0110           0
      5428 MEMB     41       POPC     H11R     HAL2     0.900000E-01   1.00800           0
      5429 MEMB     41       POPC     H11S     HAL2     0.900000E-01   1.00800           0
      5430 MEMB     41       POPC     C212     CTL2    -0.180000       12.0110           0
      5431 MEMB     41       POPC     H12R     HAL2     0.900000E-01   1.00800           0
      5432 MEMB     41       POPC     H12S     HAL2     0.900000E-01   1.00800           0
      5433 MEMB     41       POPC     C213     CTL2    -0.180000       12.0110           0
      5434 MEMB     41       POPC     H13R     HAL2     0.900000E-01   1.00800           0
      5435 MEMB     41       POPC     H13S     HAL2     0.900000E-01   1.00800           0
      5436 MEMB     41       POPC     C214     CTL2    -0.180000       12.0110           0
      5437 MEMB     41       POPC     H14R     HAL2     0.900000E-01   1.00800           0
      5438 MEMB     41       POPC     H14S     HAL2     0.900000E-01   1.00800           0
      5439 MEMB     41       POPC     C215     CTL2    -0.180000       12.0110           0
      5440 MEMB     41       POPC     H15R     HAL2     0.900000E-01   1.00800           0
      5441 MEMB     41       POPC     H15S     HAL2     0.900000E-01   1.00800           0
      5442 MEMB     41       POPC     C216     CTL2    -0.180000       12.0110           0
      5443 MEMB     41       POPC     H16R     HAL2     0.900000E-01   1.00800           0
      5444 MEMB     41       POPC     H16S     HAL2     0.900000E-01   1.00800           0
      5445 MEMB     41       POPC     C217     CTL2    -0.180000       12.0110           0
      5446 MEMB     41       POPC     H17R     HAL2     0.900000E-01   1.00800           0
      5447 MEMB     41       POPC     H17S     HAL2     0.900000E-01   1.00800           0
      5448 MEMB     41       POPC     C218     CTL3    -0.270000       12.0110           0
      5449 MEMB     41       POPC     H18R     HAL3     0.900000E-01   1.00800           0
      5450 MEMB     41       POPC     H18S     HAL3     0.900000E-01   1.00800           0
      5451 MEMB     41       POPC     H18T     HAL3     0.900000E-01   1.00800           0
      5452 MEMB     41       POPC     C33      CTL2    -0.180000       12.0110           0
      5453 MEMB     41       POPC     H3X      HAL2     0.900000E-01   1.00800           0
      5454 MEMB     41       POPC     H3Y      HAL2     0.900000E-01   1.00800           0
      5455 MEMB     41       POPC     C34      CTL2    -0.180000       12.0110           0
      5456 MEMB     41       POPC     H4X      HAL2     0.900000E-01   1.00800           0
      5457 MEMB     41       POPC     H4Y      HAL2     0.900000E-01   1.00800           0
      5458 MEMB     41       POPC     C35      CTL2    -0.180000       12.0110           0
      5459 MEMB     41       POPC     H5X      HAL2     0.900000E-01   1.00800           0
      5460 MEMB     41       POPC     H5Y      HAL2     0.900000E-01   1.00800           0
      5461 MEMB     41       POPC     C36      CTL2    -0.180000       12.0110           0
      5462 MEMB     41       POPC     H6X      HAL2     0.900000E-01   1.00800           0
      5463 MEMB     41       POPC     H6Y      HAL2     0.900000E-01   1.00800           0
      5464 MEMB     41       POPC     C37      CTL2    -0.180000       12.0110           0
      5465 MEMB     41       POPC     H7X      HAL2     0.900000E-01   1.00800           0
      5466 MEMB     41       POPC     H7Y      HAL2     0.900000E-01   1.00800           0
      5467 MEMB     41       POPC     C38      CTL2    -0.180000       12.0110           0
      5468 MEMB     41       POPC     H8X      HAL2     0.900000E-01   1.00800           0
      5469 MEMB     41       POPC     H8Y      HAL2     0.900000E-01   1.00800           0
      5470 MEMB     41       POPC     C39      CTL2    -0.180000       12.0110           0
      5471 MEMB     41       POPC     H9X      HAL2     0.900000E-01   1.00800           0
      5472 MEMB     41       POPC     H9Y      HAL2     0.900000E-01   1.00800           0
      5473 MEMB     41       POPC     C310     CTL2    -0.180000       12.0110           0
      5474 MEMB     41       POPC     H10X     HAL2     0.900000E-01   1.00800           0
      5475 MEMB     41       POPC     H10Y     HAL2     0.900000E-01   1.00800           0
      5476 MEMB     41       POPC     C311     CTL2    -0.180000       12.0110           0
      5477 MEMB     41       POPC     H11X     HAL2     0.900000E-01   1.00800           0
      5478 MEMB     41       POPC     H11Y     HAL2     0.900000E-01   1.00800           0
      5479 MEMB     41       POPC     C312     CTL2    -0.180000       12.0110           0
      5480 MEMB     41       POPC     H12X     HAL2     0.900000E-01   1.00800           0
      5481 MEMB     41       POPC     H12Y     HAL2     0.900000E-01   1.00800           0
      5482 MEMB     41       POPC     C313     CTL2    -0.180000       12.0110           0
      5483 MEMB     41       POPC     H13X     HAL2     0.900000E-01   1.00800           0
      5484 MEMB     41       POPC     H13Y     HAL2     0.900000E-01   1.00800           0
      5485 MEMB     41       POPC     C314     CTL2    -0.180000       12.0110           0
      5486 MEMB     41       POPC     H14X     HAL2     0.900000E-01   1.00800           0
      5487 MEMB     41       POPC     H14Y     HAL2     0.900000E-01   1.00800           0
      5488 MEMB     41       POPC     C315     CTL2    -0.180000       12.0110           0
      5489 MEMB     41       POPC     H15X     HAL2     0.900000E-01   1.00800           0
      5490 MEMB     41       POPC     H15Y     HAL2     0.900000E-01   1.00800           0
      5491 MEMB     41       POPC     C316     CTL3    -0.270000       12.0110           0
      5492 MEMB     41       POPC     H16X     HAL3     0.900000E-01   1.00800           0
      5493 MEMB     41       POPC     H16Y     HAL3     0.900000E-01   1.00800           0
      5494 MEMB     41       POPC     H16Z     HAL3     0.900000E-01   1.00800           0
      5495 MEMB     42       POPC     N        NTL     -0.600000       14.0070           0
      5496 MEMB     42       POPC     C12      CTL2    -0.100000       12.0110           0
      5497 MEMB     42       POPC     H12A     HL       0.250000       1.00800           0
      5498 MEMB     42       POPC     H12B     HL       0.250000       1.00800           0
      5499 MEMB     42       POPC     C13      CTL5    -0.350000       12.0110           0
      5500 MEMB     42       POPC     H13A     HL       0.250000       1.00800           0
      5501 MEMB     42       POPC     H13B     HL       0.250000       1.00800           0
      5502 MEMB     42       POPC     H13C     HL       0.250000       1.00800           0
      5503 MEMB     42       POPC     C14      CTL5    -0.350000       12.0110           0
      5504 MEMB     42       POPC     H14A     HL       0.250000       1.00800           0
      5505 MEMB     42       POPC     H14B     HL       0.250000       1.00800           0
      5506 MEMB     42       POPC     H14C     HL       0.250000       1.00800           0
      5507 MEMB     42       POPC     C15      CTL5    -0.350000       12.0110           0
      5508 MEMB     42       POPC     H15A     HL       0.250000       1.00800           0
      5509 MEMB     42       POPC     H15B     HL       0.250000       1.00800           0
      5510 MEMB     42       POPC     H15C     HL       0.250000       1.00800           0
      5511 MEMB     42       POPC     C11      CTL2    -0.800000E-01   12.0110           0
      5512 MEMB     42       POPC     H11A     HAL2     0.900000E-01   1.00800           0
      5513 MEMB     42       POPC     H11B     HAL2     0.900000E-01   1.00800           0
      5514 MEMB     42       POPC     P        PL        1.50000       30.9740           0
      5515 MEMB     42       POPC     O13      O2L     -0.780000       15.9994           0
      5516 MEMB     42       POPC     O14      O2L     -0.780000       15.9994           0
      5517 MEMB     42       POPC     O12      OSLP    -0.570000       15.9994           0
      5518 MEMB     42       POPC     O11      OSLP    -0.570000       15.9994           0
      5519 MEMB     42       POPC     C1       CTL2    -0.800000E-01   12.0110           0
      5520 MEMB     42       POPC     HA       HAL2     0.900000E-01   1.00800           0
      5521 MEMB     42       POPC     HB       HAL2     0.900000E-01   1.00800           0
      5522 MEMB     42       POPC     C2       CTL1     0.170000       12.0110           0
      5523 MEMB     42       POPC     HS       HAL1     0.900000E-01   1.00800           0
      5524 MEMB     42       POPC     O21      OSL     -0.490000       15.9994           0
      5525 MEMB     42       POPC     C21      CL       0.900000       12.0110           0
      5526 MEMB     42       POPC     O22      OBL     -0.630000       15.9994           0
      5527 MEMB     42       POPC     C22      CTL2    -0.220000       12.0110           0
      5528 MEMB     42       POPC     H2R      HAL2     0.900000E-01   1.00800           0
      5529 MEMB     42       POPC     H2S      HAL2     0.900000E-01   1.00800           0
      5530 MEMB     42       POPC     C3       CTL2     0.800000E-01   12.0110           0
      5531 MEMB     42       POPC     HX       HAL2     0.900000E-01   1.00800           0
      5532 MEMB     42       POPC     HY       HAL2     0.900000E-01   1.00800           0
      5533 MEMB     42       POPC     O31      OSL     -0.490000       15.9994           0
      5534 MEMB     42       POPC     C31      CL       0.900000       12.0110           0
      5535 MEMB     42       POPC     O32      OBL     -0.630000       15.9994           0
      5536 MEMB     42       POPC     C32      CTL2    -0.220000       12.0110           0
      5537 MEMB     42       POPC     H2X      HAL2     0.900000E-01   1.00800           0
      5538 MEMB     42       POPC     H2Y      HAL2     0.900000E-01   1.00800           0
      5539 MEMB     42       POPC     C23      CTL2    -0.180000       12.0110           0
      5540 MEMB     42       POPC     H3R      HAL2     0.900000E-01   1.00800           0
      5541 MEMB     42       POPC     H3S      HAL2     0.900000E-01   1.00800           0
      5542 MEMB     42       POPC     C24      CTL2    -0.180000       12.0110           0
      5543 MEMB     42       POPC     H4R      HAL2     0.900000E-01   1.00800           0
      5544 MEMB     42       POPC     H4S      HAL2     0.900000E-01   1.00800           0
      5545 MEMB     42       POPC     C25      CTL2    -0.180000       12.0110           0
      5546 MEMB     42       POPC     H5R      HAL2     0.900000E-01   1.00800           0
      5547 MEMB     42       POPC     H5S      HAL2     0.900000E-01   1.00800           0
      5548 MEMB     42       POPC     C26      CTL2    -0.180000       12.0110           0
      5549 MEMB     42       POPC     H6R      HAL2     0.900000E-01   1.00800           0
      5550 MEMB     42       POPC     H6S      HAL2     0.900000E-01   1.00800           0
      5551 MEMB     42       POPC     C27      CTL2    -0.180000       12.0110           0
      5552 MEMB     42       POPC     H7R      HAL2     0.900000E-01   1.00800           0
      5553 MEMB     42       POPC     H7S      HAL2     0.900000E-01   1.00800           0
      5554 MEMB     42       POPC     C28      CTL2    -0.180000       12.0110           0
      5555 MEMB     42       POPC     H8R      HAL2     0.900000E-01   1.00800           0
      5556 MEMB     42       POPC     H8S      HAL2     0.900000E-01   1.00800           0
      5557 MEMB     42       POPC     C29      CEL1    -0.150000       12.0110           0
      5558 MEMB     42       POPC     H91      HEL1     0.150000       1.00800           0
      5559 MEMB     42       POPC     C210     CEL1    -0.150000       12.0110           0
      5560 MEMB     42       POPC     H101     HEL1     0.150000       1.00800           0
      5561 MEMB     42       POPC     C211     CTL2    -0.180000       12.0110           0
      5562 MEMB     42       POPC     H11R     HAL2     0.900000E-01   1.00800           0
      5563 MEMB     42       POPC     H11S     HAL2     0.900000E-01   1.00800           0
      5564 MEMB     42       POPC     C212     CTL2    -0.180000       12.0110           0
      5565 MEMB     42       POPC     H12R     HAL2     0.900000E-01   1.00800           0
      5566 MEMB     42       POPC     H12S     HAL2     0.900000E-01   1.00800           0
      5567 MEMB     42       POPC     C213     CTL2    -0.180000       12.0110           0
      5568 MEMB     42       POPC     H13R     HAL2     0.900000E-01   1.00800           0
      5569 MEMB     42       POPC     H13S     HAL2     0.900000E-01   1.00800           0
      5570 MEMB     42       POPC     C214     CTL2    -0.180000       12.0110           0
      5571 MEMB     42       POPC     H14R     HAL2     0.900000E-01   1.00800           0
      5572 MEMB     42       POPC     H14S     HAL2     0.900000E-01   1.00800           0
      5573 MEMB     42       POPC     C215     CTL2    -0.180000       12.0110           0
      5574 MEMB     42       POPC     H15R     HAL2     0.900000E-01   1.00800           0
      5575 MEMB     42       POPC     H15S     HAL2     0.900000E-01   1.00800           0
      5576 MEMB     42       POPC     C216     CTL2    -0.180000       12.0110           0
      5577 MEMB     42       POPC     H16R     HAL2     0.900000E-01   1.00800           0
      5578 MEMB     42       POPC     H16S     HAL2     0.900000E-01   1.00800           0
      5579 MEMB     42       POPC     C217     CTL2    -0.180000       12.0110           0
      5580 MEMB     42       POPC     H17R     HAL2     0.900000E-01   1.00800           0
      5581 MEMB     42       POPC     H17S     HAL2     0.900000E-01   1.00800           0
      5582 MEMB     42       POPC     C218     CTL3    -0.270000       12.0110           0
      5583 MEMB     42       POPC     H18R     HAL3     0.900000E-01   1.00800           0
      5584 MEMB     42       POPC     H18S     HAL3     0.900000E-01   1.00800           0
      5585 MEMB     42       POPC     H18T     HAL3     0.900000E-01   1.00800           0
      5586 MEMB     42       POPC     C33      CTL2    -0.180000       12.0110           0
      5587 MEMB     42       POPC     H3X      HAL2     0.900000E-01   1.00800           0
      5588 MEMB     42       POPC     H3Y      HAL2     0.900000E-01   1.00800           0
      5589 MEMB     42       POPC     C34      CTL2    -0.180000       12.0110           0
      5590 MEMB     42       POPC     H4X      HAL2     0.900000E-01   1.00800           0
      5591 MEMB     42       POPC     H4Y      HAL2     0.900000E-01   1.00800           0
      5592 MEMB     42       POPC     C35      CTL2    -0.180000       12.0110           0
      5593 MEMB     42       POPC     H5X      HAL2     0.900000E-01   1.00800           0
      5594 MEMB     42       POPC     H5Y      HAL2     0.900000E-01   1.00800           0
      5595 MEMB     42       POPC     C36      CTL2    -0.180000       12.0110           0
      5596 MEMB     42       POPC     H6X      HAL2     0.900000E-01   1.00800           0
      5597 MEMB     42       POPC     H6Y      HAL2     0.900000E-01   1.00800           0
      5598 MEMB     42       POPC     C37      CTL2    -0.180000       12.0110           0
      5599 MEMB     42       POPC     H7X      HAL2     0.900000E-01   1.00800           0
      5600 MEMB     42       POPC     H7Y      HAL2     0.900000E-01   1.00800           0
      5601 MEMB     42       POPC     C38      CTL2    -0.180000       12.0110           0
      5602 MEMB     42       POPC     H8X      HAL2     0.900000E-01   1.00800           0
      5603 MEMB     42       POPC     H8Y      HAL2     0.900000E-01   1.00800           0
      5604 MEMB     42       POPC     C39      CTL2    -0.180000       12.0110           0
      5605 MEMB     42       POPC     H9X      HAL2     0.900000E-01   1.00800           0
      5606 MEMB     42       POPC     H9Y      HAL2     0.900000E-01   1.00800           0
      5607 MEMB     42       POPC     C310     CTL2    -0.180000       12.0110           0
      5608 MEMB     42       POPC     H10X     HAL2     0.900000E-01   1.00800           0
      5609 MEMB     42       POPC     H10Y     HAL2     0.900000E-01   1.00800           0
      5610 MEMB     42       POPC     C311     CTL2    -0.180000       12.0110           0
      5611 MEMB     42       POPC     H11X     HAL2     0.900000E-01   1.00800           0
      5612 MEMB     42       POPC     H11Y     HAL2     0.900000E-01   1.00800           0
      5613 MEMB     42       POPC     C312     CTL2    -0.180000       12.0110           0
      5614 MEMB     42       POPC     H12X     HAL2     0.900000E-01   1.00800           0
      5615 MEMB     42       POPC     H12Y     HAL2     0.900000E-01   1.00800           0
      5616 MEMB     42       POPC     C313     CTL2    -0.180000       12.0110           0
      5617 MEMB     42       POPC     H13X     HAL2     0.900000E-01   1.00800           0
      5618 MEMB     42       POPC     H13Y     HAL2     0.900000E-01   1.00800           0
      5619 MEMB     42       POPC     C314     CTL2    -0.180000       12.0110           0
      5620 MEMB     42       POPC     H14X     HAL2     0.900000E-01   1.00800           0
      5621 MEMB     42       POPC     H14Y     HAL2     0.900000E-01   1.00800           0
      5622 MEMB     42       POPC     C315     CTL2    -0.180000       12.0110           0
      5623 MEMB     42       POPC     H15X     HAL2     0.900000E-01   1.00800           0
      5624 MEMB     42       POPC     H15Y     HAL2     0.900000E-01   1.00800           0
      5625 MEMB     42       POPC     C316     CTL3    -0.270000       12.0110           0
      5626 MEMB     42       POPC     H16X     HAL3     0.900000E-01   1.00800           0
      5627 MEMB     42       POPC     H16Y     HAL3     0.900000E-01   1.00800           0
      5628 MEMB     42       POPC     H16Z     HAL3     0.900000E-01   1.00800           0
      5629 MEMB     43       POPC     N        NTL     -0.600000       14.0070           0
      5630 MEMB     43       POPC     C12      CTL2    -0.100000       12.0110           0
      5631 MEMB     43       POPC     H12A     HL       0.250000       1.00800           0
      5632 MEMB     43       POPC     H12B     HL       0.250000       1.00800           0
      5633 MEMB     43       POPC     C13      CTL5    -0.350000       12.0110           0
      5634 MEMB     43       POPC     H13A     HL       0.250000       1.00800           0
      5635 MEMB     43       POPC     H13B     HL       0.250000       1.00800           0
      5636 MEMB     43       POPC     H13C     HL       0.250000       1.00800           0
      5637 MEMB     43       POPC     C14      CTL5    -0.350000       12.0110           0
      5638 MEMB     43       POPC     H14A     HL       0.250000       1.00800           0
      5639 MEMB     43       POPC     H14B     HL       0.250000       1.00800           0
      5640 MEMB     43       POPC     H14C     HL       0.250000       1.00800           0
      5641 MEMB     43       POPC     C15      CTL5    -0.350000       12.0110           0
      5642 MEMB     43       POPC     H15A     HL       0.250000       1.00800           0
      5643 MEMB     43       POPC     H15B     HL       0.250000       1.00800           0
      5644 MEMB     43       POPC     H15C     HL       0.250000       1.00800           0
      5645 MEMB     43       POPC     C11      CTL2    -0.800000E-01   12.0110           0
      5646 MEMB     43       POPC     H11A     HAL2     0.900000E-01   1.00800           0
      5647 MEMB     43       POPC     H11B     HAL2     0.900000E-01   1.00800           0
      5648 MEMB     43       POPC     P        PL        1.50000       30.9740           0
      5649 MEMB     43       POPC     O13      O2L     -0.780000       15.9994           0
      5650 MEMB     43       POPC     O14      O2L     -0.780000       15.9994           0
      5651 MEMB     43       POPC     O12      OSLP    -0.570000       15.9994           0
      5652 MEMB     43       POPC     O11      OSLP    -0.570000       15.9994           0
      5653 MEMB     43       POPC     C1       CTL2    -0.800000E-01   12.0110           0
      5654 MEMB     43       POPC     HA       HAL2     0.900000E-01   1.00800           0
      5655 MEMB     43       POPC     HB       HAL2     0.900000E-01   1.00800           0
      5656 MEMB     43       POPC     C2       CTL1     0.170000       12.0110           0
      5657 MEMB     43       POPC     HS       HAL1     0.900000E-01   1.00800           0
      5658 MEMB     43       POPC     O21      OSL     -0.490000       15.9994           0
      5659 MEMB     43       POPC     C21      CL       0.900000       12.0110           0
      5660 MEMB     43       POPC     O22      OBL     -0.630000       15.9994           0
      5661 MEMB     43       POPC     C22      CTL2    -0.220000       12.0110           0
      5662 MEMB     43       POPC     H2R      HAL2     0.900000E-01   1.00800           0
      5663 MEMB     43       POPC     H2S      HAL2     0.900000E-01   1.00800           0
      5664 MEMB     43       POPC     C3       CTL2     0.800000E-01   12.0110           0
      5665 MEMB     43       POPC     HX       HAL2     0.900000E-01   1.00800           0
      5666 MEMB     43       POPC     HY       HAL2     0.900000E-01   1.00800           0
      5667 MEMB     43       POPC     O31      OSL     -0.490000       15.9994           0
      5668 MEMB     43       POPC     C31      CL       0.900000       12.0110           0
      5669 MEMB     43       POPC     O32      OBL     -0.630000       15.9994           0
      5670 MEMB     43       POPC     C32      CTL2    -0.220000       12.0110           0
      5671 MEMB     43       POPC     H2X      HAL2     0.900000E-01   1.00800           0
      5672 MEMB     43       POPC     H2Y      HAL2     0.900000E-01   1.00800           0
      5673 MEMB     43       POPC     C23      CTL2    -0.180000       12.0110           0
      5674 MEMB     43       POPC     H3R      HAL2     0.900000E-01   1.00800           0
      5675 MEMB     43       POPC     H3S      HAL2     0.900000E-01   1.00800           0
      5676 MEMB     43       POPC     C24      CTL2    -0.180000       12.0110           0
      5677 MEMB     43       POPC     H4R      HAL2     0.900000E-01   1.00800           0
      5678 MEMB     43       POPC     H4S      HAL2     0.900000E-01   1.00800           0
      5679 MEMB     43       POPC     C25      CTL2    -0.180000       12.0110           0
      5680 MEMB     43       POPC     H5R      HAL2     0.900000E-01   1.00800           0
      5681 MEMB     43       POPC     H5S      HAL2     0.900000E-01   1.00800           0
      5682 MEMB     43       POPC     C26      CTL2    -0.180000       12.0110           0
      5683 MEMB     43       POPC     H6R      HAL2     0.900000E-01   1.00800           0
      5684 MEMB     43       POPC     H6S      HAL2     0.900000E-01   1.00800           0
      5685 MEMB     43       POPC     C27      CTL2    -0.180000       12.0110           0
      5686 MEMB     43       POPC     H7R      HAL2     0.900000E-01   1.00800           0
      5687 MEMB     43       POPC     H7S      HAL2     0.900000E-01   1.00800           0
      5688 MEMB     43       POPC     C28      CTL2    -0.180000       12.0110           0
      5689 MEMB     43       POPC     H8R      HAL2     0.900000E-01   1.00800           0
      5690 MEMB     43       POPC     H8S      HAL2     0.900000E-01   1.00800           0
      5691 MEMB     43       POPC     C29      CEL1    -0.150000       12.0110           0
      5692 MEMB     43       POPC     H91      HEL1     0.150000       1.00800           0
      5693 MEMB     43       POPC     C210     CEL1    -0.150000       12.0110           0
      5694 MEMB     43       POPC     H101     HEL1     0.150000       1.00800           0
      5695 MEMB     43       POPC     C211     CTL2    -0.180000       12.0110           0
      5696 MEMB     43       POPC     H11R     HAL2     0.900000E-01   1.00800           0
      5697 MEMB     43       POPC     H11S     HAL2     0.900000E-01   1.00800           0
      5698 MEMB     43       POPC     C212     CTL2    -0.180000       12.0110           0
      5699 MEMB     43       POPC     H12R     HAL2     0.900000E-01   1.00800           0
      5700 MEMB     43       POPC     H12S     HAL2     0.900000E-01   1.00800           0
      5701 MEMB     43       POPC     C213     CTL2    -0.180000       12.0110           0
      5702 MEMB     43       POPC     H13R     HAL2     0.900000E-01   1.00800           0
      5703 MEMB     43       POPC     H13S     HAL2     0.900000E-01   1.00800           0
      5704 MEMB     43       POPC     C214     CTL2    -0.180000       12.0110           0
      5705 MEMB     43       POPC     H14R     HAL2     0.900000E-01   1.00800           0
      5706 MEMB     43       POPC     H14S     HAL2     0.900000E-01   1.00800           0
      5707 MEMB     43       POPC     C215     CTL2    -0.180000       12.0110           0
      5708 MEMB     43       POPC     H15R     HAL2     0.900000E-01   1.00800           0
      5709 MEMB     43       POPC     H15S     HAL2     0.900000E-01   1.00800           0
      5710 MEMB     43       POPC     C216     CTL2    -0.180000       12.0110           0
      5711 MEMB     43       POPC     H16R     HAL2     0.900000E-01   1.00800           0
      5712 MEMB     43       POPC     H16S     HAL2     0.900000E-01   1.00800           0
      5713 MEMB     43       POPC     C217     CTL2    -0.180000       12.0110           0
      5714 MEMB     43       POPC     H17R     HAL2     0.900000E-01   1.00800           0
      5715 MEMB     43       POPC     H17S     HAL2     0.900000E-01   1.00800           0
      5716 MEMB     43       POPC     C218     CTL3    -0.270000       12.0110           0
      5717 MEMB     43       POPC     H18R     HAL3     0.900000E-01   1.00800           0
      5718 MEMB     43       POPC     H18S     HAL3     0.900000E-01   1.00800           0
      5719 MEMB     43       POPC     H18T     HAL3     0.900000E-01   1.00800           0
      5720 MEMB     43       POPC     C33      CTL2    -0.180000       12.0110           0
      5721 MEMB     43       POPC     H3X      HAL2     0.900000E-01   1.00800           0
      5722 MEMB     43       POPC     H3Y      HAL2     0.900000E-01   1.00800           0
      5723 MEMB     43       POPC     C34      CTL2    -0.180000       12.0110           0
      5724 MEMB     43       POPC     H4X      HAL2     0.900000E-01   1.00800           0
      5725 MEMB     43       POPC     H4Y      HAL2     0.900000E-01   1.00800           0
      5726 MEMB     43       POPC     C35      CTL2    -0.180000       12.0110           0
      5727 MEMB     43       POPC     H5X      HAL2     0.900000E-01   1.00800           0
      5728 MEMB     43       POPC     H5Y      HAL2     0.900000E-01   1.00800           0
      5729 MEMB     43       POPC     C36      CTL2    -0.180000       12.0110           0
      5730 MEMB     43       POPC     H6X      HAL2     0.900000E-01   1.00800           0
      5731 MEMB     43       POPC     H6Y      HAL2     0.900000E-01   1.00800           0
      5732 MEMB     43       POPC     C37      CTL2    -0.180000       12.0110           0
      5733 MEMB     43       POPC     H7X      HAL2     0.900000E-01   1.00800           0
      5734 MEMB     43       POPC     H7Y      HAL2     0.900000E-01   1.00800           0
      5735 MEMB     43       POPC     C38      CTL2    -0.180000       12.0110           0
      5736 MEMB     43       POPC     H8X      HAL2     0.900000E-01   1.00800           0
      5737 MEMB     43       POPC     H8Y      HAL2     0.900000E-01   1.00800           0
      5738 MEMB     43       POPC     C39      CTL2    -0.180000       12.0110           0
      5739 MEMB     43       POPC     H9X      HAL2     0.900000E-01   1.00800           0
      5740 MEMB     43       POPC     H9Y      HAL2     0.900000E-01   1.00800           0
      5741 MEMB     43       POPC     C310     CTL2    -0.180000       12.0110           0
      5742 MEMB     43       POPC     H10X     HAL2     0.900000E-01   1.00800           0
      5743 MEMB     43       POPC     H10Y     HAL2     0.900000E-01   1.00800           0
      5744 MEMB     43       POPC     C311     CTL2    -0.180000       12.0110           0
      5745 MEMB     43       POPC     H11X     HAL2     0.900000E-01   1.00800           0
      5746 MEMB     43       POPC     H11Y     HAL2     0.900000E-01   1.00800           0
      5747 MEMB     43       POPC     C312     CTL2    -0.180000       12.0110           0
      5748 MEMB     43       POPC     H12X     HAL2     0.900000E-01   1.00800           0
      5749 MEMB     43       POPC     H12Y     HAL2     0.900000E-01   1.00800           0
      5750 MEMB     43       POPC     C313     CTL2    -0.180000       12.0110           0
      5751 MEMB     43       POPC     H13X     HAL2     0.900000E-01   1.00800           0
      5752 MEMB     43       POPC     H13Y     HAL2     0.900000E-01   1.00800           0
      5753 MEMB     43       POPC     C314     CTL2    -0.180000       12.0110           0
      5754 MEMB     43       POPC     H14X     HAL2     0.900000E-01   1.00800           0
      5755 MEMB     43       POPC     H14Y     HAL2     0.900000E-01   1.00800           0
      5756 MEMB     43       POPC     C315     CTL2    -0.180000       12.0110           0
      5757 MEMB     43       POPC     H15X     HAL2     0.900000E-01   1.00800           0
      5758 MEMB     43       POPC     H15Y     HAL2     0.900000E-01   1.00800           0
      5759 MEMB     43       POPC     C316     CTL3    -0.270000       12.0110           0
      5760 MEMB     43       POPC     H16X     HAL3     0.900000E-01   1.00800           0
      5761 MEMB     43       POPC     H16Y     HAL3     0.900000E-01   1.00800           0
      5762 MEMB     43       POPC     H16Z     HAL3     0.900000E-01   1.00800           0
      5763 MEMB     44       POPC     N        NTL     -0.600000       14.0070           0
      5764 MEMB     44       POPC     C12      CTL2    -0.100000       12.0110           0
      5765 MEMB     44       POPC     H12A     HL       0.250000       1.00800           0
      5766 MEMB     44       POPC     H12B     HL       0.250000       1.00800           0
      5767 MEMB     44       POPC     C13      CTL5    -0.350000       12.0110           0
      5768 MEMB     44       POPC     H13A     HL       0.250000       1.00800           0
      5769 MEMB     44       POPC     H13B     HL       0.250000       1.00800           0
      5770 MEMB     44       POPC     H13C     HL       0.250000       1.00800           0
      5771 MEMB     44       POPC     C14      CTL5    -0.350000       12.0110           0
      5772 MEMB     44       POPC     H14A     HL       0.250000       1.00800           0
      5773 MEMB     44       POPC     H14B     HL       0.250000       1.00800           0
      5774 MEMB     44       POPC     H14C     HL       0.250000       1.00800           0
      5775 MEMB     44       POPC     C15      CTL5    -0.350000       12.0110           0
      5776 MEMB     44       POPC     H15A     HL       0.250000       1.00800           0
      5777 MEMB     44       POPC     H15B     HL       0.250000       1.00800           0
      5778 MEMB     44       POPC     H15C     HL       0.250000       1.00800           0
      5779 MEMB     44       POPC     C11      CTL2    -0.800000E-01   12.0110           0
      5780 MEMB     44       POPC     H11A     HAL2     0.900000E-01   1.00800           0
      5781 MEMB     44       POPC     H11B     HAL2     0.900000E-01   1.00800           0
      5782 MEMB     44       POPC     P        PL        1.50000       30.9740           0
      5783 MEMB     44       POPC     O13      O2L     -0.780000       15.9994           0
      5784 MEMB     44       POPC     O14      O2L     -0.780000       15.9994           0
      5785 MEMB     44       POPC     O12      OSLP    -0.570000       15.9994           0
      5786 MEMB     44       POPC     O11      OSLP    -0.570000       15.9994           0
      5787 MEMB     44       POPC     C1       CTL2    -0.800000E-01   12.0110           0
      5788 MEMB     44       POPC     HA       HAL2     0.900000E-01   1.00800           0
      5789 MEMB     44       POPC     HB       HAL2     0.900000E-01   1.00800           0
      5790 MEMB     44       POPC     C2       CTL1     0.170000       12.0110           0
      5791 MEMB     44       POPC     HS       HAL1     0.900000E-01   1.00800           0
      5792 MEMB     44       POPC     O21      OSL     -0.490000       15.9994           0
      5793 MEMB     44       POPC     C21      CL       0.900000       12.0110           0
      5794 MEMB     44       POPC     O22      OBL     -0.630000       15.9994           0
      5795 MEMB     44       POPC     C22      CTL2    -0.220000       12.0110           0
      5796 MEMB     44       POPC     H2R      HAL2     0.900000E-01   1.00800           0
      5797 MEMB     44       POPC     H2S      HAL2     0.900000E-01   1.00800           0
      5798 MEMB     44       POPC     C3       CTL2     0.800000E-01   12.0110           0
      5799 MEMB     44       POPC     HX       HAL2     0.900000E-01   1.00800           0
      5800 MEMB     44       POPC     HY       HAL2     0.900000E-01   1.00800           0
      5801 MEMB     44       POPC     O31      OSL     -0.490000       15.9994           0
      5802 MEMB     44       POPC     C31      CL       0.900000       12.0110           0
      5803 MEMB     44       POPC     O32      OBL     -0.630000       15.9994           0
      5804 MEMB     44       POPC     C32      CTL2    -0.220000       12.0110           0
      5805 MEMB     44       POPC     H2X      HAL2     0.900000E-01   1.00800           0
      5806 MEMB     44       POPC     H2Y      HAL2     0.900000E-01   1.00800           0
      5807 MEMB     44       POPC     C23      CTL2    -0.180000       12.0110           0
      5808 MEMB     44       POPC     H3R      HAL2     0.900000E-01   1.00800           0
      5809 MEMB     44       POPC     H3S      HAL2     0.900000E-01   1.00800           0
      5810 MEMB     44       POPC     C24      CTL2    -0.180000       12.0110           0
      5811 MEMB     44       POPC     H4R      HAL2     0.900000E-01   1.00800           0
      5812 MEMB     44       POPC     H4S      HAL2     0.900000E-01   1.00800           0
      5813 MEMB     44       POPC     C25      CTL2    -0.180000       12.0110           0
      5814 MEMB     44       POPC     H5R      HAL2     0.900000E-01   1.00800           0
      5815 MEMB     44       POPC     H5S      HAL2     0.900000E-01   1.00800           0
      5816 MEMB     44       POPC     C26      CTL2    -0.180000       12.0110           0
      5817 MEMB     44       POPC     H6R      HAL2     0.900000E-01   1.00800           0
      5818 MEMB     44       POPC     H6S      HAL2     0.900000E-01   1.00800           0
      5819 MEMB     44       POPC     C27      CTL2    -0.180000       12.0110           0
      5820 MEMB     44       POPC     H7R      HAL2     0.900000E-01   1.00800           0
      5821 MEMB     44       POPC     H7S      HAL2     0.900000E-01   1.00800           0
      5822 MEMB     44       POPC     C28      CTL2    -0.180000       12.0110           0
      5823 MEMB     44       POPC     H8R      HAL2     0.900000E-01   1.00800           0
      5824 MEMB     44       POPC     H8S      HAL2     0.900000E-01   1.00800           0
      5825 MEMB     44       POPC     C29      CEL1    -0.150000       12.0110           0
      5826 MEMB     44       POPC     H91      HEL1     0.150000       1.00800           0
      5827 MEMB     44       POPC     C210     CEL1    -0.150000       12.0110           0
      5828 MEMB     44       POPC     H101     HEL1     0.150000       1.00800           0
      5829 MEMB     44       POPC     C211     CTL2    -0.180000       12.0110           0
      5830 MEMB     44       POPC     H11R     HAL2     0.900000E-01   1.00800           0
      5831 MEMB     44       POPC     H11S     HAL2     0.900000E-01   1.00800           0
      5832 MEMB     44       POPC     C212     CTL2    -0.180000       12.0110           0
      5833 MEMB     44       POPC     H12R     HAL2     0.900000E-01   1.00800           0
      5834 MEMB     44       POPC     H12S     HAL2     0.900000E-01   1.00800           0
      5835 MEMB     44       POPC     C213     CTL2    -0.180000       12.0110           0
      5836 MEMB     44       POPC     H13R     HAL2     0.900000E-01   1.00800           0
      5837 MEMB     44       POPC     H13S     HAL2     0.900000E-01   1.00800           0
      5838 MEMB     44       POPC     C214     CTL2    -0.180000       12.0110           0
      5839 MEMB     44       POPC     H14R     HAL2     0.900000E-01   1.00800           0
      5840 MEMB     44       POPC     H14S     HAL2     0.900000E-01   1.00800           0
      5841 MEMB     44       POPC     C215     CTL2    -0.180000       12.0110           0
      5842 MEMB     44       POPC     H15R     HAL2     0.900000E-01   1.00800           0
      5843 MEMB     44       POPC     H15S     HAL2     0.900000E-01   1.00800           0
      5844 MEMB     44       POPC     C216     CTL2    -0.180000       12.0110           0
      5845 MEMB     44       POPC     H16R     HAL2     0.900000E-01   1.00800           0
      5846 MEMB     44       POPC     H16S     HAL2     0.900000E-01   1.00800           0
      5847 MEMB     44       POPC     C217     CTL2    -0.180000       12.0110           0
      5848 MEMB     44       POPC     H17R     HAL2     0.900000E-01   1.00800           0
      5849 MEMB     44       POPC     H17S     HAL2     0.900000E-01   1.00800           0
      5850 MEMB     44       POPC     C218     CTL3    -0.270000       12.0110           0
      5851 MEMB     44       POPC     H18R     HAL3     0.900000E-01   1.00800           0
      5852 MEMB     44       POPC     H18S     HAL3     0.900000E-01   1.00800           0
      5853 MEMB     44       POPC     H18T     HAL3     0.900000E-01   1.00800           0
      5854 MEMB     44       POPC     C33      CTL2    -0.180000       12.0110           0
      5855 MEMB     44       POPC     H3X      HAL2     0.900000E-01   1.00800           0
      5856 MEMB     44       POPC     H3Y      HAL2     0.900000E-01   1.00800           0
      5857 MEMB     44       POPC     C34      CTL2    -0.180000       12.0110           0
      5858 MEMB     44       POPC     H4X      HAL2     0.900000E-01   1.00800           0
      5859 MEMB     44       POPC     H4Y      HAL2     0.900000E-01   1.00800           0
      5860 MEMB     44       POPC     C35      CTL2    -0.180000       12.0110           0
      5861 MEMB     44       POPC     H5X      HAL2     0.900000E-01   1.00800           0
      5862 MEMB     44       POPC     H5Y      HAL2     0.900000E-01   1.00800           0
      5863 MEMB     44       POPC     C36      CTL2    -0.180000       12.0110           0
      5864 MEMB     44       POPC     H6X      HAL2     0.900000E-01   1.00800           0
      5865 MEMB     44       POPC     H6Y      HAL2     0.900000E-01   1.00800           0
      5866 MEMB     44       POPC     C37      CTL2    -0.180000       12.0110           0
      5867 MEMB     44       POPC     H7X      HAL2     0.900000E-01   1.00800           0
      5868 MEMB     44       POPC     H7Y      HAL2     0.900000E-01   1.00800           0
      5869 MEMB     44       POPC     C38      CTL2    -0.180000       12.0110           0
      5870 MEMB     44       POPC     H8X      HAL2     0.900000E-01   1.00800           0
      5871 MEMB     44       POPC     H8Y      HAL2     0.900000E-01   1.00800           0
      5872 MEMB     44       POPC     C39      CTL2    -0.180000       12.0110           0
      5873 MEMB     44       POPC     H9X      HAL2     0.900000E-01   1.00800           0
      5874 MEMB     44       POPC     H9Y      HAL2     0.900000E-01   1.00800           0
      5875 MEMB     44       POPC     C310     CTL2    -0.180000       12.0110           0
      5876 MEMB     44       POPC     H10X     HAL2     0.900000E-01   1.00800           0
      5877 MEMB     44       POPC     H10Y     HAL2     0.900000E-01   1.00800           0
      5878 MEMB     44       POPC     C311     CTL2    -0.180000       12.0110           0
      5879 MEMB     44       POPC     H11X     HAL2     0.900000E-01   1.00800           0
      5880 MEMB     44       POPC     H11Y     HAL2     0.900000E-01   1.00800           0
      5881 MEMB     44       POPC     C312     CTL2    -0.180000       12.0110           0
      5882 MEMB     44       POPC     H12X     HAL2     0.900000E-01   1.00800           0
      5883 MEMB     44       POPC     H12Y     HAL2     0.900000E-01   1.00800           0
      5884 MEMB     44       POPC     C313     CTL2    -0.180000       12.0110           0
      5885 MEMB     44       POPC     H13X     HAL2     0.900000E-01   1.00800           0
      5886 MEMB     44       POPC     H13Y     HAL2     0.900000E-01   1.00800           0
      5887 MEMB     44       POPC     C314     CTL2    -0.180000       12.0110           0
      5888 MEMB     44       POPC     H14X     HAL2     0.900000E-01   1.00800           0
      5889 MEMB     44       POPC     H14Y     HAL2     0.900000E-01   1.00800           0
      5890 MEMB     44       POPC     C315     CTL2    -0.180000       12.0110           0
      5891 MEMB     44       POPC     H15X     HAL2     0.900000E-01   1.00800           0
      5892 MEMB     44       POPC     H15Y     HAL2     0.900000E-01   1.00800           0
      5893 MEMB     44       POPC     C316     CTL3    -0.270000       12.0110           0
      5894 MEMB     44       POPC     H16X     HAL3     0.900000E-01   1.00800           0
      5895 MEMB     44       POPC     H16Y     HAL3     0.900000E-01   1.00800           0
      5896 MEMB     44       POPC     H16Z     HAL3     0.900000E-01   1.00800           0
      5897 MEMB     45       POPC     N        NTL     -0.600000       14.0070           0
      5898 MEMB     45       POPC     C12      CTL2    -0.100000       12.0110           0
      5899 MEMB     45       POPC     H12A     HL       0.250000       1.00800           0
      5900 MEMB     45       POPC     H12B     HL       0.250000       1.00800           0
      5901 MEMB     45       POPC     C13      CTL5    -0.350000       12.0110           0
      5902 MEMB     45       POPC     H13A     HL       0.250000       1.00800           0
      5903 MEMB     45       POPC     H13B     HL       0.250000       1.00800           0
      5904 MEMB     45       POPC     H13C     HL       0.250000       1.00800           0
      5905 MEMB     45       POPC     C14      CTL5    -0.350000       12.0110           0
      5906 MEMB     45       POPC     H14A     HL       0.250000       1.00800           0
      5907 MEMB     45       POPC     H14B     HL       0.250000       1.00800           0
      5908 MEMB     45       POPC     H14C     HL       0.250000       1.00800           0
      5909 MEMB     45       POPC     C15      CTL5    -0.350000       12.0110           0
      5910 MEMB     45       POPC     H15A     HL       0.250000       1.00800           0
      5911 MEMB     45       POPC     H15B     HL       0.250000       1.00800           0
      5912 MEMB     45       POPC     H15C     HL       0.250000       1.00800           0
      5913 MEMB     45       POPC     C11      CTL2    -0.800000E-01   12.0110           0
      5914 MEMB     45       POPC     H11A     HAL2     0.900000E-01   1.00800           0
      5915 MEMB     45       POPC     H11B     HAL2     0.900000E-01   1.00800           0
      5916 MEMB     45       POPC     P        PL        1.50000       30.9740           0
      5917 MEMB     45       POPC     O13      O2L     -0.780000       15.9994           0
      5918 MEMB     45       POPC     O14      O2L     -0.780000       15.9994           0
      5919 MEMB     45       POPC     O12      OSLP    -0.570000       15.9994           0
      5920 MEMB     45       POPC     O11      OSLP    -0.570000       15.9994           0
      5921 MEMB     45       POPC     C1       CTL2    -0.800000E-01   12.0110           0
      5922 MEMB     45       POPC     HA       HAL2     0.900000E-01   1.00800           0
      5923 MEMB     45       POPC     HB       HAL2     0.900000E-01   1.00800           0
      5924 MEMB     45       POPC     C2       CTL1     0.170000       12.0110           0
      5925 MEMB     45       POPC     HS       HAL1     0.900000E-01   1.00800           0
      5926 MEMB     45       POPC     O21      OSL     -0.490000       15.9994           0
      5927 MEMB     45       POPC     C21      CL       0.900000       12.0110           0
      5928 MEMB     45       POPC     O22      OBL     -0.630000       15.9994           0
      5929 MEMB     45       POPC     C22      CTL2    -0.220000       12.0110           0
      5930 MEMB     45       POPC     H2R      HAL2     0.900000E-01   1.00800           0
      5931 MEMB     45       POPC     H2S      HAL2     0.900000E-01   1.00800           0
      5932 MEMB     45       POPC     C3       CTL2     0.800000E-01   12.0110           0
      5933 MEMB     45       POPC     HX       HAL2     0.900000E-01   1.00800           0
      5934 MEMB     45       POPC     HY       HAL2     0.900000E-01   1.00800           0
      5935 MEMB     45       POPC     O31      OSL     -0.490000       15.9994           0
      5936 MEMB     45       POPC     C31      CL       0.900000       12.0110           0
      5937 MEMB     45       POPC     O32      OBL     -0.630000       15.9994           0
      5938 MEMB     45       POPC     C32      CTL2    -0.220000       12.0110           0
      5939 MEMB     45       POPC     H2X      HAL2     0.900000E-01   1.00800           0
      5940 MEMB     45       POPC     H2Y      HAL2     0.900000E-01   1.00800           0
      5941 MEMB     45       POPC     C23      CTL2    -0.180000       12.0110           0
      5942 MEMB     45       POPC     H3R      HAL2     0.900000E-01   1.00800           0
      5943 MEMB     45       POPC     H3S      HAL2     0.900000E-01   1.00800           0
      5944 MEMB     45       POPC     C24      CTL2    -0.180000       12.0110           0
      5945 MEMB     45       POPC     H4R      HAL2     0.900000E-01   1.00800           0
      5946 MEMB     45       POPC     H4S      HAL2     0.900000E-01   1.00800           0
      5947 MEMB     45       POPC     C25      CTL2    -0.180000       12.0110           0
      5948 MEMB     45       POPC     H5R      HAL2     0.900000E-01   1.00800           0
      5949 MEMB     45       POPC     H5S      HAL2     0.900000E-01   1.00800           0
      5950 MEMB     45       POPC     C26      CTL2    -0.180000       12.0110           0
      5951 MEMB     45       POPC     H6R      HAL2     0.900000E-01   1.00800           0
      5952 MEMB     45       POPC     H6S      HAL2     0.900000E-01   1.00800           0
      5953 MEMB     45       POPC     C27      CTL2    -0.180000       12.0110           0
      5954 MEMB     45       POPC     H7R      HAL2     0.900000E-01   1.00800           0
      5955 MEMB     45       POPC     H7S      HAL2     0.900000E-01   1.00800           0
      5956 MEMB     45       POPC     C28      CTL2    -0.180000       12.0110           0
      5957 MEMB     45       POPC     H8R      HAL2     0.900000E-01   1.00800           0
      5958 MEMB     45       POPC     H8S      HAL2     0.900000E-01   1.00800           0
      5959 MEMB     45       POPC     C29      CEL1    -0.150000       12.0110           0
      5960 MEMB     45       POPC     H91      HEL1     0.150000       1.00800           0
      5961 MEMB     45       POPC     C210     CEL1    -0.150000       12.0110           0
      5962 MEMB     45       POPC     H101     HEL1     0.150000       1.00800           0
      5963 MEMB     45       POPC     C211     CTL2    -0.180000       12.0110           0
      5964 MEMB     45       POPC     H11R     HAL2     0.900000E-01   1.00800           0
      5965 MEMB     45       POPC     H11S     HAL2     0.900000E-01   1.00800           0
      5966 MEMB     45       POPC     C212     CTL2    -0.180000       12.0110           0
      5967 MEMB     45       POPC     H12R     HAL2     0.900000E-01   1.00800           0
      5968 MEMB     45       POPC     H12S     HAL2     0.900000E-01   1.00800           0
      5969 MEMB     45       POPC     C213     CTL2    -0.180000       12.0110           0
      5970 MEMB     45       POPC     H13R     HAL2     0.900000E-01   1.00800           0
      5971 MEMB     45       POPC     H13S     HAL2     0.900000E-01   1.00800           0
      5972 MEMB     45       POPC     C214     CTL2    -0.180000       12.0110           0
      5973 MEMB     45       POPC     H14R     HAL2     0.900000E-01   1.00800           0
      5974 MEMB     45       POPC     H14S     HAL2     0.900000E-01   1.00800           0
      5975 MEMB     45       POPC     C215     CTL2    -0.180000       12.0110           0
      5976 MEMB     45       POPC     H15R     HAL2     0.900000E-01   1.00800           0
      5977 MEMB     45       POPC     H15S     HAL2     0.900000E-01   1.00800           0
      5978 MEMB     45       POPC     C216     CTL2    -0.180000       12.0110           0
      5979 MEMB     45       POPC     H16R     HAL2     0.900000E-01   1.00800           0
      5980 MEMB     45       POPC     H16S     HAL2     0.900000E-01   1.00800           0
      5981 MEMB     45       POPC     C217     CTL2    -0.180000       12.0110           0
      5982 MEMB     45       POPC     H17R     HAL2     0.900000E-01   1.00800           0
      5983 MEMB     45       POPC     H17S     HAL2     0.900000E-01   1.00800           0
      5984 MEMB     45       POPC     C218     CTL3    -0.270000       12.0110           0
      5985 MEMB     45       POPC     H18R     HAL3     0.900000E-01   1.00800           0
      5986 MEMB     45       POPC     H18S     HAL3     0.900000E-01   1.00800           0
      5987 MEMB     45       POPC     H18T     HAL3     0.900000E-01   1.00800           0
      5988 MEMB     45       POPC     C33      CTL2    -0.180000       12.0110           0
      5989 MEMB     45       POPC     H3X      HAL2     0.900000E-01   1.00800           0
      5990 MEMB     45       POPC     H3Y      HAL2     0.900000E-01   1.00800           0
      5991 MEMB     45       POPC     C34      CTL2    -0.180000       12.0110           0
      5992 MEMB     45       POPC     H4X      HAL2     0.900000E-01   1.00800           0
      5993 MEMB     45       POPC     H4Y      HAL2     0.900000E-01   1.00800           0
      5994 MEMB     45       POPC     C35      CTL2    -0.180000       12.0110           0
      5995 MEMB     45       POPC     H5X      HAL2     0.900000E-01   1.00800           0
      5996 MEMB     45       POPC     H5Y      HAL2     0.900000E-01   1.00800           0
      5997 MEMB     45       POPC     C36      CTL2    -0.180000       12.0110           0
      5998 MEMB     45       POPC     H6X      HAL2     0.900000E-01   1.00800           0
      5999 MEMB     45       POPC     H6Y      HAL2     0.900000E-01   1.00800           0
      6000 MEMB     45       POPC     C37      CTL2    -0.180000       12.0110           0
      6001 MEMB     45       POPC     H7X      HAL2     0.900000E-01   1.00800           0
      6002 MEMB     45       POPC     H7Y      HAL2     0.900000E-01   1.00800           0
      6003 MEMB     45       POPC     C38      CTL2    -0.180000       12.0110           0
      6004 MEMB     45       POPC     H8X      HAL2     0.900000E-01   1.00800           0
      6005 MEMB     45       POPC     H8Y      HAL2     0.900000E-01   1.00800           0
      6006 MEMB     45       POPC     C39      CTL2    -0.180000       12.0110           0
      6007 MEMB     45       POPC     H9X      HAL2     0.900000E-01   1.00800           0
      6008 MEMB     45       POPC     H9Y      HAL2     0.900000E-01   1.00800           0
      6009 MEMB     45       POPC     C310     CTL2    -0.180000       12.0110           0
      6010 MEMB     45       POPC     H10X     HAL2     0.900000E-01   1.00800           0
      6011 MEMB     45       POPC     H10Y     HAL2     0.900000E-01   1.00800           0
      6012 MEMB     45       POPC     C311     CTL2    -0.180000       12.0110           0
      6013 MEMB     45       POPC     H11X     HAL2     0.900000E-01   1.00800           0
      6014 MEMB     45       POPC     H11Y     HAL2     0.900000E-01   1.00800           0
      6015 MEMB     45       POPC     C312     CTL2    -0.180000       12.0110           0
      6016 MEMB     45       POPC     H12X     HAL2     0.900000E-01   1.00800           0
      6017 MEMB     45       POPC     H12Y     HAL2     0.900000E-01   1.00800           0
      6018 MEMB     45       POPC     C313     CTL2    -0.180000       12.0110           0
      6019 MEMB     45       POPC     H13X     HAL2     0.900000E-01   1.00800           0
      6020 MEMB     45       POPC     H13Y     HAL2     0.900000E-01   1.00800           0
      6021 MEMB     45       POPC     C314     CTL2    -0.180000       12.0110           0
      6022 MEMB     45       POPC     H14X     HAL2     0.900000E-01   1.00800           0
      6023 MEMB     45       POPC     H14Y     HAL2     0.900000E-01   1.00800           0
      6024 MEMB     45       POPC     C315     CTL2    -0.180000       12.0110           0
      6025 MEMB     45       POPC     H15X     HAL2     0.900000E-01   1.00800           0
      6026 MEMB     45       POPC     H15Y     HAL2     0.900000E-01   1.00800           0
      6027 MEMB     45       POPC     C316     CTL3    -0.270000       12.0110           0
      6028 MEMB     45       POPC     H16X     HAL3     0.900000E-01   1.00800           0
      6029 MEMB     45       POPC     H16Y     HAL3     0.900000E-01   1.00800           0
      6030 MEMB     45       POPC     H16Z     HAL3     0.900000E-01   1.00800           0
      6031 MEMB     46       POPC     N        NTL     -0.600000       14.0070           0
      6032 MEMB     46       POPC     C12      CTL2    -0.100000       12.0110           0
      6033 MEMB     46       POPC     H12A     HL       0.250000       1.00800           0
      6034 MEMB     46       POPC     H12B     HL       0.250000       1.00800           0
      6035 MEMB     46       POPC     C13      CTL5    -0.350000       12.0110           0
      6036 MEMB     46       POPC     H13A     HL       0.250000       1.00800           0
      6037 MEMB     46       POPC     H13B     HL       0.250000       1.00800           0
      6038 MEMB     46       POPC     H13C     HL       0.250000       1.00800           0
      6039 MEMB     46       POPC     C14      CTL5    -0.350000       12.0110           0
      6040 MEMB     46       POPC     H14A     HL       0.250000       1.00800           0
      6041 MEMB     46       POPC     H14B     HL       0.250000       1.00800           0
      6042 MEMB     46       POPC     H14C     HL       0.250000       1.00800           0
      6043 MEMB     46       POPC     C15      CTL5    -0.350000       12.0110           0
      6044 MEMB     46       POPC     H15A     HL       0.250000       1.00800           0
      6045 MEMB     46       POPC     H15B     HL       0.250000       1.00800           0
      6046 MEMB     46       POPC     H15C     HL       0.250000       1.00800           0
      6047 MEMB     46       POPC     C11      CTL2    -0.800000E-01   12.0110           0
      6048 MEMB     46       POPC     H11A     HAL2     0.900000E-01   1.00800           0
      6049 MEMB     46       POPC     H11B     HAL2     0.900000E-01   1.00800           0
      6050 MEMB     46       POPC     P        PL        1.50000       30.9740           0
      6051 MEMB     46       POPC     O13      O2L     -0.780000       15.9994           0
      6052 MEMB     46       POPC     O14      O2L     -0.780000       15.9994           0
      6053 MEMB     46       POPC     O12      OSLP    -0.570000       15.9994           0
      6054 MEMB     46       POPC     O11      OSLP    -0.570000       15.9994           0
      6055 MEMB     46       POPC     C1       CTL2    -0.800000E-01   12.0110           0
      6056 MEMB     46       POPC     HA       HAL2     0.900000E-01   1.00800           0
      6057 MEMB     46       POPC     HB       HAL2     0.900000E-01   1.00800           0
      6058 MEMB     46       POPC     C2       CTL1     0.170000       12.0110           0
      6059 MEMB     46       POPC     HS       HAL1     0.900000E-01   1.00800           0
      6060 MEMB     46       POPC     O21      OSL     -0.490000       15.9994           0
      6061 MEMB     46       POPC     C21      CL       0.900000       12.0110           0
      6062 MEMB     46       POPC     O22      OBL     -0.630000       15.9994           0
      6063 MEMB     46       POPC     C22      CTL2    -0.220000       12.0110           0
      6064 MEMB     46       POPC     H2R      HAL2     0.900000E-01   1.00800           0
      6065 MEMB     46       POPC     H2S      HAL2     0.900000E-01   1.00800           0
      6066 MEMB     46       POPC     C3       CTL2     0.800000E-01   12.0110           0
      6067 MEMB     46       POPC     HX       HAL2     0.900000E-01   1.00800           0
      6068 MEMB     46       POPC     HY       HAL2     0.900000E-01   1.00800           0
      6069 MEMB     46       POPC     O31      OSL     -0.490000       15.9994           0
      6070 MEMB     46       POPC     C31      CL       0.900000       12.0110           0
      6071 MEMB     46       POPC     O32      OBL     -0.630000       15.9994           0
      6072 MEMB     46       POPC     C32      CTL2    -0.220000       12.0110           0
      6073 MEMB     46       POPC     H2X      HAL2     0.900000E-01   1.00800           0
      6074 MEMB     46       POPC     H2Y      HAL2     0.900000E-01   1.00800           0
      6075 MEMB     46       POPC     C23      CTL2    -0.180000       12.0110           0
      6076 MEMB     46       POPC     H3R      HAL2     0.900000E-01   1.00800           0
      6077 MEMB     46       POPC     H3S      HAL2     0.900000E-01   1.00800           0
      6078 MEMB     46       POPC     C24      CTL2    -0.180000       12.0110           0
      6079 MEMB     46       POPC     H4R      HAL2     0.900000E-01   1.00800           0
      6080 MEMB     46       POPC     H4S      HAL2     0.900000E-01   1.00800           0
      6081 MEMB     46       POPC     C25      CTL2    -0.180000       12.0110           0
      6082 MEMB     46       POPC     H5R      HAL2     0.900000E-01   1.00800           0
      6083 MEMB     46       POPC     H5S      HAL2     0.900000E-01   1.00800           0
      6084 MEMB     46       POPC     C26      CTL2    -0.180000       12.0110           0
      6085 MEMB     46       POPC     H6R      HAL2     0.900000E-01   1.00800           0
      6086 MEMB     46       POPC     H6S      HAL2     0.900000E-01   1.00800           0
      6087 MEMB     46       POPC     C27      CTL2    -0.180000       12.0110           0
      6088 MEMB     46       POPC     H7R      HAL2     0.900000E-01   1.00800           0
      6089 MEMB     46       POPC     H7S      HAL2     0.900000E-01   1.00800           0
      6090 MEMB     46       POPC     C28      CTL2    -0.180000       12.0110           0
      6091 MEMB     46       POPC     H8R      HAL2     0.900000E-01   1.00800           0
      6092 MEMB     46       POPC     H8S      HAL2     0.900000E-01   1.00800           0
      6093 MEMB     46       POPC     C29      CEL1    -0.150000       12.0110           0
      6094 MEMB     46       POPC     H91      HEL1     0.150000       1.00800           0
      6095 MEMB     46       POPC     C210     CEL1    -0.150000       12.0110           0
      6096 MEMB     46       POPC     H101     HEL1     0.150000       1.00800           0
      6097 MEMB     46       POPC     C211     CTL2    -0.180000       12.0110           0
      6098 MEMB     46       POPC     H11R     HAL2     0.900000E-01   1.00800           0
      6099 MEMB     46       POPC     H11S     HAL2     0.900000E-01   1.00800           0
      6100 MEMB     46       POPC     C212     CTL2    -0.180000       12.0110           0
      6101 MEMB     46       POPC     H12R     HAL2     0.900000E-01   1.00800           0
      6102 MEMB     46       POPC     H12S     HAL2     0.900000E-01   1.00800           0
      6103 MEMB     46       POPC     C213     CTL2    -0.180000       12.0110           0
      6104 MEMB     46       POPC     H13R     HAL2     0.900000E-01   1.00800           0
      6105 MEMB     46       POPC     H13S     HAL2     0.900000E-01   1.00800           0
      6106 MEMB     46       POPC     C214     CTL2    -0.180000       12.0110           0
      6107 MEMB     46       POPC     H14R     HAL2     0.900000E-01   1.00800           0
      6108 MEMB     46       POPC     H14S     HAL2     0.900000E-01   1.00800           0
      6109 MEMB     46       POPC     C215     CTL2    -0.180000       12.0110           0
      6110 MEMB     46       POPC     H15R     HAL2     0.900000E-01   1.00800           0
      6111 MEMB     46       POPC     H15S     HAL2     0.900000E-01   1.00800           0
      6112 MEMB     46       POPC     C216     CTL2    -0.180000       12.0110           0
      6113 MEMB     46       POPC     H16R     HAL2     0.900000E-01   1.00800           0
      6114 MEMB     46       POPC     H16S     HAL2     0.900000E-01   1.00800           0
      6115 MEMB     46       POPC     C217     CTL2    -0.180000       12.0110           0
      6116 MEMB     46       POPC     H17R     HAL2     0.900000E-01   1.00800           0
      6117 MEMB     46       POPC     H17S     HAL2     0.900000E-01   1.00800           0
      6118 MEMB     46       POPC     C218     CTL3    -0.270000       12.0110           0
      6119 MEMB     46       POPC     H18R     HAL3     0.900000E-01   1.00800           0
      6120 MEMB     46       POPC     H18S     HAL3     0.900000E-01   1.00800           0
      6121 MEMB     46       POPC     H18T     HAL3     0.900000E-01   1.00800           0
      6122 MEMB     46       POPC     C33      CTL2    -0.180000       12.0110           0
      6123 MEMB     46       POPC     H3X      HAL2     0.900000E-01   1.00800           0
      6124 MEMB     46       POPC     H3Y      HAL2     0.900000E-01   1.00800           0
      6125 MEMB     46       POPC     C34      CTL2    -0.180000       12.0110           0
      6126 MEMB     46       POPC     H4X      HAL2     0.900000E-01   1.00800           0
      6127 MEMB     46       POPC     H4Y      HAL2     0.900000E-01   1.00800           0
      6128 MEMB     46       POPC     C35      CTL2    -0.180000       12.0110           0
      6129 MEMB     46       POPC     H5X      HAL2     0.900000E-01   1.00800           0
      6130 MEMB     46       POPC     H5Y      HAL2     0.900000E-01   1.00800           0
      6131 MEMB     46       POPC     C36      CTL2    -0.180000       12.0110           0
      6132 MEMB     46       POPC     H6X      HAL2     0.900000E-01   1.00800           0
      6133 MEMB     46       POPC     H6Y      HAL2     0.900000E-01   1.00800           0
      6134 MEMB     46       POPC     C37      CTL2    -0.180000       12.0110           0
      6135 MEMB     46       POPC     H7X      HAL2     0.900000E-01   1.00800           0
      6136 MEMB     46       POPC     H7Y      HAL2     0.900000E-01   1.00800           0
      6137 MEMB     46       POPC     C38      CTL2    -0.180000       12.0110           0
      6138 MEMB     46       POPC     H8X      HAL2     0.900000E-01   1.00800           0
      6139 MEMB     46       POPC     H8Y      HAL2     0.900000E-01   1.00800           0
      6140 MEMB     46       POPC     C39      CTL2    -0.180000       12.0110           0
      6141 MEMB     46       POPC     H9X      HAL2     0.900000E-01   1.00800           0
      6142 MEMB     46       POPC     H9Y      HAL2     0.900000E-01   1.00800           0
      6143 MEMB     46       POPC     C310     CTL2    -0.180000       12.0110           0
      6144 MEMB     46       POPC     H10X     HAL2     0.900000E-01   1.00800           0
      6145 MEMB     46       POPC     H10Y     HAL2     0.900000E-01   1.00800           0
      6146 MEMB     46       POPC     C311     CTL2    -0.180000       12.0110           0
      6147 MEMB     46       POPC     H11X     HAL2     0.900000E-01   1.00800           0
      6148 MEMB     46       POPC     H11Y     HAL2     0.900000E-01   1.00800           0
      6149 MEMB     46       POPC     C312     CTL2    -0.180000       12.0110           0
      6150 MEMB     46       POPC     H12X     HAL2     0.900000E-01   1.00800           0
      6151 MEMB     46       POPC     H12Y     HAL2     0.900000E-01   1.00800           0
      6152 MEMB     46       POPC     C313     CTL2    -0.180000       12.0110           0
      6153 MEMB     46       POPC     H13X     HAL2     0.900000E-01   1.00800           0
      6154 MEMB     46       POPC     H13Y     HAL2     0.900000E-01   1.00800           0
      6155 MEMB     46       POPC     C314     CTL2    -0.180000       12.0110           0
      6156 MEMB     46       POPC     H14X     HAL2     0.900000E-01   1.00800           0
      6157 MEMB     46       POPC     H14Y     HAL2     0.900000E-01   1.00800           0
      6158 MEMB     46       POPC     C315     CTL2    -0.180000       12.0110           0
      6159 MEMB     46       POPC     H15X     HAL2     0.900000E-01   1.00800           0
      6160 MEMB     46       POPC     H15Y     HAL2     0.900000E-01   1.00800           0
      6161 MEMB     46       POPC     C316     CTL3    -0.270000       12.0110           0
      6162 MEMB     46       POPC     H16X     HAL3     0.900000E-01   1.00800           0
      6163 MEMB     46       POPC     H16Y     HAL3     0.900000E-01   1.00800           0
      6164 MEMB     46       POPC     H16Z     HAL3     0.900000E-01   1.00800           0
      6165 MEMB     47       POPC     N        NTL     -0.600000       14.0070           0
      6166 MEMB     47       POPC     C12      CTL2    -0.100000       12.0110           0
      6167 MEMB     47       POPC     H12A     HL       0.250000       1.00800           0
      6168 MEMB     47       POPC     H12B     HL       0.250000       1.00800           0
      6169 MEMB     47       POPC     C13      CTL5    -0.350000       12.0110           0
      6170 MEMB     47       POPC     H13A     HL       0.250000       1.00800           0
      6171 MEMB     47       POPC     H13B     HL       0.250000       1.00800           0
      6172 MEMB     47       POPC     H13C     HL       0.250000       1.00800           0
      6173 MEMB     47       POPC     C14      CTL5    -0.350000       12.0110           0
      6174 MEMB     47       POPC     H14A     HL       0.250000       1.00800           0
      6175 MEMB     47       POPC     H14B     HL       0.250000       1.00800           0
      6176 MEMB     47       POPC     H14C     HL       0.250000       1.00800           0
      6177 MEMB     47       POPC     C15      CTL5    -0.350000       12.0110           0
      6178 MEMB     47       POPC     H15A     HL       0.250000       1.00800           0
      6179 MEMB     47       POPC     H15B     HL       0.250000       1.00800           0
      6180 MEMB     47       POPC     H15C     HL       0.250000       1.00800           0
      6181 MEMB     47       POPC     C11      CTL2    -0.800000E-01   12.0110           0
      6182 MEMB     47       POPC     H11A     HAL2     0.900000E-01   1.00800           0
      6183 MEMB     47       POPC     H11B     HAL2     0.900000E-01   1.00800           0
      6184 MEMB     47       POPC     P        PL        1.50000       30.9740           0
      6185 MEMB     47       POPC     O13      O2L     -0.780000       15.9994           0
      6186 MEMB     47       POPC     O14      O2L     -0.780000       15.9994           0
      6187 MEMB     47       POPC     O12      OSLP    -0.570000       15.9994           0
      6188 MEMB     47       POPC     O11      OSLP    -0.570000       15.9994           0
      6189 MEMB     47       POPC     C1       CTL2    -0.800000E-01   12.0110           0
      6190 MEMB     47       POPC     HA       HAL2     0.900000E-01   1.00800           0
      6191 MEMB     47       POPC     HB       HAL2     0.900000E-01   1.00800           0
      6192 MEMB     47       POPC     C2       CTL1     0.170000       12.0110           0
      6193 MEMB     47       POPC     HS       HAL1     0.900000E-01   1.00800           0
      6194 MEMB     47       POPC     O21      OSL     -0.490000       15.9994           0
      6195 MEMB     47       POPC     C21      CL       0.900000       12.0110           0
      6196 MEMB     47       POPC     O22      OBL     -0.630000       15.9994           0
      6197 MEMB     47       POPC     C22      CTL2    -0.220000       12.0110           0
      6198 MEMB     47       POPC     H2R      HAL2     0.900000E-01   1.00800           0
      6199 MEMB     47       POPC     H2S      HAL2     0.900000E-01   1.00800           0
      6200 MEMB     47       POPC     C3       CTL2     0.800000E-01   12.0110           0
      6201 MEMB     47       POPC     HX       HAL2     0.900000E-01   1.00800           0
      6202 MEMB     47       POPC     HY       HAL2     0.900000E-01   1.00800           0
      6203 MEMB     47       POPC     O31      OSL     -0.490000       15.9994           0
      6204 MEMB     47       POPC     C31      CL       0.900000       12.0110           0
      6205 MEMB     47       POPC     O32      OBL     -0.630000       15.9994           0
      6206 MEMB     47       POPC     C32      CTL2    -0.220000       12.0110           0
      6207 MEMB     47       POPC     H2X      HAL2     0.900000E-01   1.00800           0
      6208 MEMB     47       POPC     H2Y      HAL2     0.900000E-01   1.00800           0
      6209 MEMB     47       POPC     C23      CTL2    -0.180000       12.0110           0
      6210 MEMB     47       POPC     H3R      HAL2     0.900000E-01   1.00800           0
      6211 MEMB     47       POPC     H3S      HAL2     0.900000E-01   1.00800           0
      6212 MEMB     47       POPC     C24      CTL2    -0.180000       12.0110           0
      6213 MEMB     47       POPC     H4R      HAL2     0.900000E-01   1.00800           0
      6214 MEMB     47       POPC     H4S      HAL2     0.900000E-01   1.00800           0
      6215 MEMB     47       POPC     C25      CTL2    -0.180000       12.0110           0
      6216 MEMB     47       POPC     H5R      HAL2     0.900000E-01   1.00800           0
      6217 MEMB     47       POPC     H5S      HAL2     0.900000E-01   1.00800           0
      6218 MEMB     47       POPC     C26      CTL2    -0.180000       12.0110           0
      6219 MEMB     47       POPC     H6R      HAL2     0.900000E-01   1.00800           0
      6220 MEMB     47       POPC     H6S      HAL2     0.900000E-01   1.00800           0
      6221 MEMB     47       POPC     C27      CTL2    -0.180000       12.0110           0
      6222 MEMB     47       POPC     H7R      HAL2     0.900000E-01   1.00800           0
      6223 MEMB     47       POPC     H7S      HAL2     0.900000E-01   1.00800           0
      6224 MEMB     47       POPC     C28      CTL2    -0.180000       12.0110           0
      6225 MEMB     47       POPC     H8R      HAL2     0.900000E-01   1.00800           0
      6226 MEMB     47       POPC     H8S      HAL2     0.900000E-01   1.00800           0
      6227 MEMB     47       POPC     C29      CEL1    -0.150000       12.0110           0
      6228 MEMB     47       POPC     H91      HEL1     0.150000       1.00800           0
      6229 MEMB     47       POPC     C210     CEL1    -0.150000       12.0110           0
      6230 MEMB     47       POPC     H101     HEL1     0.150000       1.00800           0
      6231 MEMB     47       POPC     C211     CTL2    -0.180000       12.0110           0
      6232 MEMB     47       POPC     H11R     HAL2     0.900000E-01   1.00800           0
      6233 MEMB     47       POPC     H11S     HAL2     0.900000E-01   1.00800           0
      6234 MEMB     47       POPC     C212     CTL2    -0.180000       12.0110           0
      6235 MEMB     47       POPC     H12R     HAL2     0.900000E-01   1.00800           0
      6236 MEMB     47       POPC     H12S     HAL2     0.900000E-01   1.00800           0
      6237 MEMB     47       POPC     C213     CTL2    -0.180000       12.0110           0
      6238 MEMB     47       POPC     H13R     HAL2     0.900000E-01   1.00800           0
      6239 MEMB     47       POPC     H13S     HAL2     0.900000E-01   1.00800           0
      6240 MEMB     47       POPC     C214     CTL2    -0.180000       12.0110           0
      6241 MEMB     47       POPC     H14R     HAL2     0.900000E-01   1.00800           0
      6242 MEMB     47       POPC     H14S     HAL2     0.900000E-01   1.00800           0
      6243 MEMB     47       POPC     C215     CTL2    -0.180000       12.0110           0
      6244 MEMB     47       POPC     H15R     HAL2     0.900000E-01   1.00800           0
      6245 MEMB     47       POPC     H15S     HAL2     0.900000E-01   1.00800           0
      6246 MEMB     47       POPC     C216     CTL2    -0.180000       12.0110           0
      6247 MEMB     47       POPC     H16R     HAL2     0.900000E-01   1.00800           0
      6248 MEMB     47       POPC     H16S     HAL2     0.900000E-01   1.00800           0
      6249 MEMB     47       POPC     C217     CTL2    -0.180000       12.0110           0
      6250 MEMB     47       POPC     H17R     HAL2     0.900000E-01   1.00800           0
      6251 MEMB     47       POPC     H17S     HAL2     0.900000E-01   1.00800           0
      6252 MEMB     47       POPC     C218     CTL3    -0.270000       12.0110           0
      6253 MEMB     47       POPC     H18R     HAL3     0.900000E-01   1.00800           0
      6254 MEMB     47       POPC     H18S     HAL3     0.900000E-01   1.00800           0
      6255 MEMB     47       POPC     H18T     HAL3     0.900000E-01   1.00800           0
      6256 MEMB     47       POPC     C33      CTL2    -0.180000       12.0110           0
      6257 MEMB     47       POPC     H3X      HAL2     0.900000E-01   1.00800           0
      6258 MEMB     47       POPC     H3Y      HAL2     0.900000E-01   1.00800           0
      6259 MEMB     47       POPC     C34      CTL2    -0.180000       12.0110           0
      6260 MEMB     47       POPC     H4X      HAL2     0.900000E-01   1.00800           0
      6261 MEMB     47       POPC     H4Y      HAL2     0.900000E-01   1.00800           0
      6262 MEMB     47       POPC     C35      CTL2    -0.180000       12.0110           0
      6263 MEMB     47       POPC     H5X      HAL2     0.900000E-01   1.00800           0
      6264 MEMB     47       POPC     H5Y      HAL2     0.900000E-01   1.00800           0
      6265 MEMB     47       POPC     C36      CTL2    -0.180000       12.0110           0
      6266 MEMB     47       POPC     H6X      HAL2     0.900000E-01   1.00800           0
      6267 MEMB     47       POPC     H6Y      HAL2     0.900000E-01   1.00800           0
      6268 MEMB     47       POPC     C37      CTL2    -0.180000       12.0110           0
      6269 MEMB     47       POPC     H7X      HAL2     0.900000E-01   1.00800           0
      6270 MEMB     47       POPC     H7Y      HAL2     0.900000E-01   1.00800           0
      6271 MEMB     47       POPC     C38      CTL2    -0.180000       12.0110           0
      6272 MEMB     47       POPC     H8X      HAL2     0.900000E-01   1.00800           0
      6273 MEMB     47       POPC     H8Y      HAL2     0.900000E-01   1.00800           0
      6274 MEMB     47       POPC     C39      CTL2    -0.180000       12.0110           0
      6275 MEMB     47       POPC     H9X      HAL2     0.900000E-01   1.00800           0
      6276 MEMB     47       POPC     H9Y      HAL2     0.900000E-01   1.00800           0
      6277 MEMB     47       POPC     C310     CTL2    -0.180000       12.0110           0
      6278 MEMB     47       POPC     H10X     HAL2     0.900000E-01   1.00800           0
      6279 MEMB     47       POPC     H10Y     HAL2     0.900000E-01   1.00800           0
      6280 MEMB     47       POPC     C311     CTL2    -0.180000       12.0110           0
      6281 MEMB     47       POPC     H11X     HAL2     0.900000E-01   1.00800           0
      6282 MEMB     47       POPC     H11Y     HAL2     0.900000E-01   1.00800           0
      6283 MEMB     47       POPC     C312     CTL2    -0.180000       12.0110           0
      6284 MEMB     47       POPC     H12X     HAL2     0.900000E-01   1.00800           0
      6285 MEMB     47       POPC     H12Y     HAL2     0.900000E-01   1.00800           0
      6286 MEMB     47       POPC     C313     CTL2    -0.180000       12.0110           0
      6287 MEMB     47       POPC     H13X     HAL2     0.900000E-01   1.00800           0
      6288 MEMB     47       POPC     H13Y     HAL2     0.900000E-01   1.00800           0
      6289 MEMB     47       POPC     C314     CTL2    -0.180000       12.0110           0
      6290 MEMB     47       POPC     H14X     HAL2     0.900000E-01   1.00800           0
      6291 MEMB     47       POPC     H14Y     HAL2     0.900000E-01   1.00800           0
      6292 MEMB     47       POPC     C315     CTL2    -0.180000       12.0110           0
      6293 MEMB     47       POPC     H15X     HAL2     0.900000E-01   1.00800           0
      6294 MEMB     47       POPC     H15Y     HAL2     0.900000E-01   1.00800           0
      6295 MEMB     47       POPC     C316     CTL3    -0.270000       12.0110           0
      6296 MEMB     47       POPC     H16X     HAL3     0.900000E-01   1.00800           0
      6297 MEMB     47       POPC     H16Y     HAL3     0.900000E-01   1.00800           0
      6298 MEMB     47       POPC     H16Z     HAL3     0.900000E-01   1.00800           0
      6299 MEMB     48       POPC     N        NTL     -0.600000       14.0070           0
      6300 MEMB     48       POPC     C12      CTL2    -0.100000       12.0110           0
      6301 MEMB     48       POPC     H12A     HL       0.250000       1.00800           0
      6302 MEMB     48       POPC     H12B     HL       0.250000       1.00800           0
      6303 MEMB     48       POPC     C13      CTL5    -0.350000       12.0110           0
      6304 MEMB     48       POPC     H13A     HL       0.250000       1.00800           0
      6305 MEMB     48       POPC     H13B     HL       0.250000       1.00800           0
      6306 MEMB     48       POPC     H13C     HL       0.250000       1.00800           0
      6307 MEMB     48       POPC     C14      CTL5    -0.350000       12.0110           0
      6308 MEMB     48       POPC     H14A     HL       0.250000       1.00800           0
      6309 MEMB     48       POPC     H14B     HL       0.250000       1.00800           0
      6310 MEMB     48       POPC     H14C     HL       0.250000       1.00800           0
      6311 MEMB     48       POPC     C15      CTL5    -0.350000       12.0110           0
      6312 MEMB     48       POPC     H15A     HL       0.250000       1.00800           0
      6313 MEMB     48       POPC     H15B     HL       0.250000       1.00800           0
      6314 MEMB     48       POPC     H15C     HL       0.250000       1.00800           0
      6315 MEMB     48       POPC     C11      CTL2    -0.800000E-01   12.0110           0
      6316 MEMB     48       POPC     H11A     HAL2     0.900000E-01   1.00800           0
      6317 MEMB     48       POPC     H11B     HAL2     0.900000E-01   1.00800           0
      6318 MEMB     48       POPC     P        PL        1.50000       30.9740           0
      6319 MEMB     48       POPC     O13      O2L     -0.780000       15.9994           0
      6320 MEMB     48       POPC     O14      O2L     -0.780000       15.9994           0
      6321 MEMB     48       POPC     O12      OSLP    -0.570000       15.9994           0
      6322 MEMB     48       POPC     O11      OSLP    -0.570000       15.9994           0
      6323 MEMB     48       POPC     C1       CTL2    -0.800000E-01   12.0110           0
      6324 MEMB     48       POPC     HA       HAL2     0.900000E-01   1.00800           0
      6325 MEMB     48       POPC     HB       HAL2     0.900000E-01   1.00800           0
      6326 MEMB     48       POPC     C2       CTL1     0.170000       12.0110           0
      6327 MEMB     48       POPC     HS       HAL1     0.900000E-01   1.00800           0
      6328 MEMB     48       POPC     O21      OSL     -0.490000       15.9994           0
      6329 MEMB     48       POPC     C21      CL       0.900000       12.0110           0
      6330 MEMB     48       POPC     O22      OBL     -0.630000       15.9994           0
      6331 MEMB     48       POPC     C22      CTL2    -0.220000       12.0110           0
      6332 MEMB     48       POPC     H2R      HAL2     0.900000E-01   1.00800           0
      6333 MEMB     48       POPC     H2S      HAL2     0.900000E-01   1.00800           0
      6334 MEMB     48       POPC     C3       CTL2     0.800000E-01   12.0110           0
      6335 MEMB     48       POPC     HX       HAL2     0.900000E-01   1.00800           0
      6336 MEMB     48       POPC     HY       HAL2     0.900000E-01   1.00800           0
      6337 MEMB     48       POPC     O31      OSL     -0.490000       15.9994           0
      6338 MEMB     48       POPC     C31      CL       0.900000       12.0110           0
      6339 MEMB     48       POPC     O32      OBL     -0.630000       15.9994           0
      6340 MEMB     48       POPC     C32      CTL2    -0.220000       12.0110           0
      6341 MEMB     48       POPC     H2X      HAL2     0.900000E-01   1.00800           0
      6342 MEMB     48       POPC     H2Y      HAL2     0.900000E-01   1.00800           0
      6343 MEMB     48       POPC     C23      CTL2    -0.180000       12.0110           0
      6344 MEMB     48       POPC     H3R      HAL2     0.900000E-01   1.00800           0
      6345 MEMB     48       POPC     H3S      HAL2     0.900000E-01   1.00800           0
      6346 MEMB     48       POPC     C24      CTL2    -0.180000       12.0110           0
      6347 MEMB     48       POPC     H4R      HAL2     0.900000E-01   1.00800           0
      6348 MEMB     48       POPC     H4S      HAL2     0.900000E-01   1.00800           0
      6349 MEMB     48       POPC     C25      CTL2    -0.180000       12.0110           0
      6350 MEMB     48       POPC     H5R      HAL2     0.900000E-01   1.00800           0
      6351 MEMB     48       POPC     H5S      HAL2     0.900000E-01   1.00800           0
      6352 MEMB     48       POPC     C26      CTL2    -0.180000       12.0110           0
      6353 MEMB     48       POPC     H6R      HAL2     0.900000E-01   1.00800           0
      6354 MEMB     48       POPC     H6S      HAL2     0.900000E-01   1.00800           0
      6355 MEMB     48       POPC     C27      CTL2    -0.180000       12.0110           0
      6356 MEMB     48       POPC     H7R      HAL2     0.900000E-01   1.00800           0
      6357 MEMB     48       POPC     H7S      HAL2     0.900000E-01   1.00800           0
      6358 MEMB     48       POPC     C28      CTL2    -0.180000       12.0110           0
      6359 MEMB     48       POPC     H8R      HAL2     0.900000E-01   1.00800           0
      6360 MEMB     48       POPC     H8S      HAL2     0.900000E-01   1.00800           0
      6361 MEMB     48       POPC     C29      CEL1    -0.150000       12.0110           0
      6362 MEMB     48       POPC     H91      HEL1     0.150000       1.00800           0
      6363 MEMB     48       POPC     C210     CEL1    -0.150000       12.0110           0
      6364 MEMB     48       POPC     H101     HEL1     0.150000       1.00800           0
      6365 MEMB     48       POPC     C211     CTL2    -0.180000       12.0110           0
      6366 MEMB     48       POPC     H11R     HAL2     0.900000E-01   1.00800           0
      6367 MEMB     48       POPC     H11S     HAL2     0.900000E-01   1.00800           0
      6368 MEMB     48       POPC     C212     CTL2    -0.180000       12.0110           0
      6369 MEMB     48       POPC     H12R     HAL2     0.900000E-01   1.00800           0
      6370 MEMB     48       POPC     H12S     HAL2     0.900000E-01   1.00800           0
      6371 MEMB     48       POPC     C213     CTL2    -0.180000       12.0110           0
      6372 MEMB     48       POPC     H13R     HAL2     0.900000E-01   1.00800           0
      6373 MEMB     48       POPC     H13S     HAL2     0.900000E-01   1.00800           0
      6374 MEMB     48       POPC     C214     CTL2    -0.180000       12.0110           0
      6375 MEMB     48       POPC     H14R     HAL2     0.900000E-01   1.00800           0
      6376 MEMB     48       POPC     H14S     HAL2     0.900000E-01   1.00800           0
      6377 MEMB     48       POPC     C215     CTL2    -0.180000       12.0110           0
      6378 MEMB     48       POPC     H15R     HAL2     0.900000E-01   1.00800           0
      6379 MEMB     48       POPC     H15S     HAL2     0.900000E-01   1.00800           0
      6380 MEMB     48       POPC     C216     CTL2    -0.180000       12.0110           0
      6381 MEMB     48       POPC     H16R     HAL2     0.900000E-01   1.00800           0
      6382 MEMB     48       POPC     H16S     HAL2     0.900000E-01   1.00800           0
      6383 MEMB     48       POPC     C217     CTL2    -0.180000       12.0110           0
      6384 MEMB     48       POPC     H17R     HAL2     0.900000E-01   1.00800           0
      6385 MEMB     48       POPC     H17S     HAL2     0.900000E-01   1.00800           0
      6386 MEMB     48       POPC     C218     CTL3    -0.270000       12.0110           0
      6387 MEMB     48       POPC     H18R     HAL3     0.900000E-01   1.00800           0
      6388 MEMB     48       POPC     H18S     HAL3     0.900000E-01   1.00800           0
      6389 MEMB     48       POPC     H18T     HAL3     0.900000E-01   1.00800           0
      6390 MEMB     48       POPC     C33      CTL2    -0.180000       12.0110           0
      6391 MEMB     48       POPC     H3X      HAL2     0.900000E-01   1.00800           0
      6392 MEMB     48       POPC     H3Y      HAL2     0.900000E-01   1.00800           0
      6393 MEMB     48       POPC     C34      CTL2    -0.180000       12.0110           0
      6394 MEMB     48       POPC     H4X      HAL2     0.900000E-01   1.00800           0
      6395 MEMB     48       POPC     H4Y      HAL2     0.900000E-01   1.00800           0
      6396 MEMB     48       POPC     C35      CTL2    -0.180000       12.0110           0
      6397 MEMB     48       POPC     H5X      HAL2     0.900000E-01   1.00800           0
      6398 MEMB     48       POPC     H5Y      HAL2     0.900000E-01   1.00800           0
      6399 MEMB     48       POPC     C36      CTL2    -0.180000       12.0110           0
      6400 MEMB     48       POPC     H6X      HAL2     0.900000E-01   1.00800           0
      6401 MEMB     48       POPC     H6Y      HAL2     0.900000E-01   1.00800           0
      6402 MEMB     48       POPC     C37      CTL2    -0.180000       12.0110           0
      6403 MEMB     48       POPC     H7X      HAL2     0.900000E-01   1.00800           0
      6404 MEMB     48       POPC     H7Y      HAL2     0.900000E-01   1.00800           0
      6405 MEMB     48       POPC     C38      CTL2    -0.180000       12.0110           0
      6406 MEMB     48       POPC     H8X      HAL2     0.900000E-01   1.00800           0
      6407 MEMB     48       POPC     H8Y      HAL2     0.900000E-01   1.00800           0
      6408 MEMB     48       POPC     C39      CTL2    -0.180000       12.0110           0
      6409 MEMB     48       POPC     H9X      HAL2     0.900000E-01   1.00800           0
      6410 MEMB     48       POPC     H9Y      HAL2     0.900000E-01   1.00800           0
      6411 MEMB     48       POPC     C310     CTL2    -0.180000       12.0110           0
      6412 MEMB     48       POPC     H10X     HAL2     0.900000E-01   1.00800           0
      6413 MEMB     48       POPC     H10Y     HAL2     0.900000E-01   1.00800           0
      6414 MEMB     48       POPC     C311     CTL2    -0.180000       12.0110           0
      6415 MEMB     48       POPC     H11X     HAL2     0.900000E-01   1.00800           0
      6416 MEMB     48       POPC     H11Y     HAL2     0.900000E-01   1.00800           0
      6417 MEMB     48       POPC     C312     CTL2    -0.180000       12.0110           0
      6418 MEMB     48       POPC     H12X     HAL2     0.900000E-01   1.00800           0
      6419 MEMB     48       POPC     H12Y     HAL2     0.900000E-01   1.00800           0
      6420 MEMB     48       POPC     C313     CTL2    -0.180000       12.0110           0
      6421 MEMB     48       POPC     H13X     HAL2     0.900000E-01   1.00800           0
      6422 MEMB     48       POPC     H13Y     HAL2     0.900000E-01   1.00800           0
      6423 MEMB     48       POPC     C314     CTL2    -0.180000       12.0110           0
      6424 MEMB     48       POPC     H14X     HAL2     0.900000E-01   1.00800           0
      6425 MEMB     48       POPC     H14Y     HAL2     0.900000E-01   1.00800           0
      6426 MEMB     48       POPC     C315     CTL2    -0.180000       12.0110           0
      6427 MEMB     48       POPC     H15X     HAL2     0.900000E-01   1.00800           0
      6428 MEMB     48       POPC     H15Y     HAL2     0.900000E-01   1.00800           0
      6429 MEMB     48       POPC     C316     CTL3    -0.270000       12.0110           0
      6430 MEMB     48       POPC     H16X     HAL3     0.900000E-01   1.00800           0
      6431 MEMB     48       POPC     H16Y     HAL3     0.900000E-01   1.00800           0
      6432 MEMB     48       POPC     H16Z     HAL3     0.900000E-01   1.00800           0
      6433 MEMB     49       POPC     N        NTL     -0.600000       14.0070           0
      6434 MEMB     49       POPC     C12      CTL2    -0.100000       12.0110           0
      6435 MEMB     49       POPC     H12A     HL       0.250000       1.00800           0
      6436 MEMB     49       POPC     H12B     HL       0.250000       1.00800           0
      6437 MEMB     49       POPC     C13      CTL5    -0.350000       12.0110           0
      6438 MEMB     49       POPC     H13A     HL       0.250000       1.00800           0
      6439 MEMB     49       POPC     H13B     HL       0.250000       1.00800           0
      6440 MEMB     49       POPC     H13C     HL       0.250000       1.00800           0
      6441 MEMB     49       POPC     C14      CTL5    -0.350000       12.0110           0
      6442 MEMB     49       POPC     H14A     HL       0.250000       1.00800           0
      6443 MEMB     49       POPC     H14B     HL       0.250000       1.00800           0
      6444 MEMB     49       POPC     H14C     HL       0.250000       1.00800           0
      6445 MEMB     49       POPC     C15      CTL5    -0.350000       12.0110           0
      6446 MEMB     49       POPC     H15A     HL       0.250000       1.00800           0
      6447 MEMB     49       POPC     H15B     HL       0.250000       1.00800           0
      6448 MEMB     49       POPC     H15C     HL       0.250000       1.00800           0
      6449 MEMB     49       POPC     C11      CTL2    -0.800000E-01   12.0110           0
      6450 MEMB     49       POPC     H11A     HAL2     0.900000E-01   1.00800           0
      6451 MEMB     49       POPC     H11B     HAL2     0.900000E-01   1.00800           0
      6452 MEMB     49       POPC     P        PL        1.50000       30.9740           0
      6453 MEMB     49       POPC     O13      O2L     -0.780000       15.9994           0
      6454 MEMB     49       POPC     O14      O2L     -0.780000       15.9994           0
      6455 MEMB     49       POPC     O12      OSLP    -0.570000       15.9994           0
      6456 MEMB     49       POPC     O11      OSLP    -0.570000       15.9994           0
      6457 MEMB     49       POPC     C1       CTL2    -0.800000E-01   12.0110           0
      6458 MEMB     49       POPC     HA       HAL2     0.900000E-01   1.00800           0
      6459 MEMB     49       POPC     HB       HAL2     0.900000E-01   1.00800           0
      6460 MEMB     49       POPC     C2       CTL1     0.170000       12.0110           0
      6461 MEMB     49       POPC     HS       HAL1     0.900000E-01   1.00800           0
      6462 MEMB     49       POPC     O21      OSL     -0.490000       15.9994           0
      6463 MEMB     49       POPC     C21      CL       0.900000       12.0110           0
      6464 MEMB     49       POPC     O22      OBL     -0.630000       15.9994           0
      6465 MEMB     49       POPC     C22      CTL2    -0.220000       12.0110           0
      6466 MEMB     49       POPC     H2R      HAL2     0.900000E-01   1.00800           0
      6467 MEMB     49       POPC     H2S      HAL2     0.900000E-01   1.00800           0
      6468 MEMB     49       POPC     C3       CTL2     0.800000E-01   12.0110           0
      6469 MEMB     49       POPC     HX       HAL2     0.900000E-01   1.00800           0
      6470 MEMB     49       POPC     HY       HAL2     0.900000E-01   1.00800           0
      6471 MEMB     49       POPC     O31      OSL     -0.490000       15.9994           0
      6472 MEMB     49       POPC     C31      CL       0.900000       12.0110           0
      6473 MEMB     49       POPC     O32      OBL     -0.630000       15.9994           0
      6474 MEMB     49       POPC     C32      CTL2    -0.220000       12.0110           0
      6475 MEMB     49       POPC     H2X      HAL2     0.900000E-01   1.00800           0
      6476 MEMB     49       POPC     H2Y      HAL2     0.900000E-01   1.00800           0
      6477 MEMB     49       POPC     C23      CTL2    -0.180000       12.0110           0
      6478 MEMB     49       POPC     H3R      HAL2     0.900000E-01   1.00800           0
      6479 MEMB     49       POPC     H3S      HAL2     0.900000E-01   1.00800           0
      6480 MEMB     49       POPC     C24      CTL2    -0.180000       12.0110           0
      6481 MEMB     49       POPC     H4R      HAL2     0.900000E-01   1.00800           0
      6482 MEMB     49       POPC     H4S      HAL2     0.900000E-01   1.00800           0
      6483 MEMB     49       POPC     C25      CTL2    -0.180000       12.0110           0
      6484 MEMB     49       POPC     H5R      HAL2     0.900000E-01   1.00800           0
      6485 MEMB     49       POPC     H5S      HAL2     0.900000E-01   1.00800           0
      6486 MEMB     49       POPC     C26      CTL2    -0.180000       12.0110           0
      6487 MEMB     49       POPC     H6R      HAL2     0.900000E-01   1.00800           0
      6488 MEMB     49       POPC     H6S      HAL2     0.900000E-01   1.00800           0
      6489 MEMB     49       POPC     C27      CTL2    -0.180000       12.0110           0
      6490 MEMB     49       POPC     H7R      HAL2     0.900000E-01   1.00800           0
      6491 MEMB     49       POPC     H7S      HAL2     0.900000E-01   1.00800           0
      6492 MEMB     49       POPC     C28      CTL2    -0.180000       12.0110           0
      6493 MEMB     49       POPC     H8R      HAL2     0.900000E-01   1.00800           0
      6494 MEMB     49       POPC     H8S      HAL2     0.900000E-01   1.00800           0
      6495 MEMB     49       POPC     C29      CEL1    -0.150000       12.0110           0
      6496 MEMB     49       POPC     H91      HEL1     0.150000       1.00800           0
      6497 MEMB     49       POPC     C210     CEL1    -0.150000       12.0110           0
      6498 MEMB     49       POPC     H101     HEL1     0.150000       1.00800           0
      6499 MEMB     49       POPC     C211     CTL2    -0.180000       12.0110           0
      6500 MEMB     49       POPC     H11R     HAL2     0.900000E-01   1.00800           0
      6501 MEMB     49       POPC     H11S     HAL2     0.900000E-01   1.00800           0
      6502 MEMB     49       POPC     C212     CTL2    -0.180000       12.0110           0
      6503 MEMB     49       POPC     H12R     HAL2     0.900000E-01   1.00800           0
      6504 MEMB     49       POPC     H12S     HAL2     0.900000E-01   1.00800           0
      6505 MEMB     49       POPC     C213     CTL2    -0.180000       12.0110           0
      6506 MEMB     49       POPC     H13R     HAL2     0.900000E-01   1.00800           0
      6507 MEMB     49       POPC     H13S     HAL2     0.900000E-01   1.00800           0
      6508 MEMB     49       POPC     C214     CTL2    -0.180000       12.0110           0
      6509 MEMB     49       POPC     H14R     HAL2     0.900000E-01   1.00800           0
      6510 MEMB     49       POPC     H14S     HAL2     0.900000E-01   1.00800           0
      6511 MEMB     49       POPC     C215     CTL2    -0.180000       12.0110           0
      6512 MEMB     49       POPC     H15R     HAL2     0.900000E-01   1.00800           0
      6513 MEMB     49       POPC     H15S     HAL2     0.900000E-01   1.00800           0
      6514 MEMB     49       POPC     C216     CTL2    -0.180000       12.0110           0
      6515 MEMB     49       POPC     H16R     HAL2     0.900000E-01   1.00800           0
      6516 MEMB     49       POPC     H16S     HAL2     0.900000E-01   1.00800           0
      6517 MEMB     49       POPC     C217     CTL2    -0.180000       12.0110           0
      6518 MEMB     49       POPC     H17R     HAL2     0.900000E-01   1.00800           0
      6519 MEMB     49       POPC     H17S     HAL2     0.900000E-01   1.00800           0
      6520 MEMB     49       POPC     C218     CTL3    -0.270000       12.0110           0
      6521 MEMB     49       POPC     H18R     HAL3     0.900000E-01   1.00800           0
      6522 MEMB     49       POPC     H18S     HAL3     0.900000E-01   1.00800           0
      6523 MEMB     49       POPC     H18T     HAL3     0.900000E-01   1.00800           0
      6524 MEMB     49       POPC     C33      CTL2    -0.180000       12.0110           0
      6525 MEMB     49       POPC     H3X      HAL2     0.900000E-01   1.00800           0
      6526 MEMB     49       POPC     H3Y      HAL2     0.900000E-01   1.00800           0
      6527 MEMB     49       POPC     C34      CTL2    -0.180000       12.0110           0
      6528 MEMB     49       POPC     H4X      HAL2     0.900000E-01   1.00800           0
      6529 MEMB     49       POPC     H4Y      HAL2     0.900000E-01   1.00800           0
      6530 MEMB     49       POPC     C35      CTL2    -0.180000       12.0110           0
      6531 MEMB     49       POPC     H5X      HAL2     0.900000E-01   1.00800           0
      6532 MEMB     49       POPC     H5Y      HAL2     0.900000E-01   1.00800           0
      6533 MEMB     49       POPC     C36      CTL2    -0.180000       12.0110           0
      6534 MEMB     49       POPC     H6X      HAL2     0.900000E-01   1.00800           0
      6535 MEMB     49       POPC     H6Y      HAL2     0.900000E-01   1.00800           0
      6536 MEMB     49       POPC     C37      CTL2    -0.180000       12.0110           0
      6537 MEMB     49       POPC     H7X      HAL2     0.900000E-01   1.00800           0
      6538 MEMB     49       POPC     H7Y      HAL2     0.900000E-01   1.00800           0
      6539 MEMB     49       POPC     C38      CTL2    -0.180000       12.0110           0
      6540 MEMB     49       POPC     H8X      HAL2     0.900000E-01   1.00800           0
      6541 MEMB     49       POPC     H8Y      HAL2     0.900000E-01   1.00800           0
      6542 MEMB     49       POPC     C39      CTL2    -0.180000       12.0110           0
      6543 MEMB     49       POPC     H9X      HAL2     0.900000E-01   1.00800           0
      6544 MEMB     49       POPC     H9Y      HAL2     0.900000E-01   1.00800           0
      6545 MEMB     49       POPC     C310     CTL2    -0.180000       12.0110           0
      6546 MEMB     49       POPC     H10X     HAL2     0.900000E-01   1.00800           0
      6547 MEMB     49       POPC     H10Y     HAL2     0.900000E-01   1.00800           0
      6548 MEMB     49       POPC     C311     CTL2    -0.180000       12.0110           0
      6549 MEMB     49       POPC     H11X     HAL2     0.900000E-01   1.00800           0
      6550 MEMB     49       POPC     H11Y     HAL2     0.900000E-01   1.00800           0
      6551 MEMB     49       POPC     C312     CTL2    -0.180000       12.0110           0
      6552 MEMB     49       POPC     H12X     HAL2     0.900000E-01   1.00800           0
      6553 MEMB     49       POPC     H12Y     HAL2     0.900000E-01   1.00800           0
      6554 MEMB     49       POPC     C313     CTL2    -0.180000       12.0110           0
      6555 MEMB     49       POPC     H13X     HAL2     0.900000E-01   1.00800           0
      6556 MEMB     49       POPC     H13Y     HAL2     0.900000E-01   1.00800           0
      6557 MEMB     49       POPC     C314     CTL2    -0.180000       12.0110           0
      6558 MEMB     49       POPC     H14X     HAL2     0.900000E-01   1.00800           0
      6559 MEMB     49       POPC     H14Y     HAL2     0.900000E-01   1.00800           0
      6560 MEMB     49       POPC     C315     CTL2    -0.180000       12.0110           0
      6561 MEMB     49       POPC     H15X     HAL2     0.900000E-01   1.00800           0
      6562 MEMB     49       POPC     H15Y     HAL2     0.900000E-01   1.00800           0
      6563 MEMB     49       POPC     C316     CTL3    -0.270000       12.0110           0
      6564 MEMB     49       POPC     H16X     HAL3     0.900000E-01   1.00800           0
      6565 MEMB     49       POPC     H16Y     HAL3     0.900000E-01   1.00800           0
      6566 MEMB     49       POPC     H16Z     HAL3     0.900000E-01   1.00800           0
      6567 MEMB     50       POPC     N        NTL     -0.600000       14.0070           0
      6568 MEMB     50       POPC     C12      CTL2    -0.100000       12.0110           0
      6569 MEMB     50       POPC     H12A     HL       0.250000       1.00800           0
      6570 MEMB     50       POPC     H12B     HL       0.250000       1.00800           0
      6571 MEMB     50       POPC     C13      CTL5    -0.350000       12.0110           0
      6572 MEMB     50       POPC     H13A     HL       0.250000       1.00800           0
      6573 MEMB     50       POPC     H13B     HL       0.250000       1.00800           0
      6574 MEMB     50       POPC     H13C     HL       0.250000       1.00800           0
      6575 MEMB     50       POPC     C14      CTL5    -0.350000       12.0110           0
      6576 MEMB     50       POPC     H14A     HL       0.250000       1.00800           0
      6577 MEMB     50       POPC     H14B     HL       0.250000       1.00800           0
      6578 MEMB     50       POPC     H14C     HL       0.250000       1.00800           0
      6579 MEMB     50       POPC     C15      CTL5    -0.350000       12.0110           0
      6580 MEMB     50       POPC     H15A     HL       0.250000       1.00800           0
      6581 MEMB     50       POPC     H15B     HL       0.250000       1.00800           0
      6582 MEMB     50       POPC     H15C     HL       0.250000       1.00800           0
      6583 MEMB     50       POPC     C11      CTL2    -0.800000E-01   12.0110           0
      6584 MEMB     50       POPC     H11A     HAL2     0.900000E-01   1.00800           0
      6585 MEMB     50       POPC     H11B     HAL2     0.900000E-01   1.00800           0
      6586 MEMB     50       POPC     P        PL        1.50000       30.9740           0
      6587 MEMB     50       POPC     O13      O2L     -0.780000       15.9994           0
      6588 MEMB     50       POPC     O14      O2L     -0.780000       15.9994           0
      6589 MEMB     50       POPC     O12      OSLP    -0.570000       15.9994           0
      6590 MEMB     50       POPC     O11      OSLP    -0.570000       15.9994           0
      6591 MEMB     50       POPC     C1       CTL2    -0.800000E-01   12.0110           0
      6592 MEMB     50       POPC     HA       HAL2     0.900000E-01   1.00800           0
      6593 MEMB     50       POPC     HB       HAL2     0.900000E-01   1.00800           0
      6594 MEMB     50       POPC     C2       CTL1     0.170000       12.0110           0
      6595 MEMB     50       POPC     HS       HAL1     0.900000E-01   1.00800           0
      6596 MEMB     50       POPC     O21      OSL     -0.490000       15.9994           0
      6597 MEMB     50       POPC     C21      CL       0.900000       12.0110           0
      6598 MEMB     50       POPC     O22      OBL     -0.630000       15.9994           0
      6599 MEMB     50       POPC     C22      CTL2    -0.220000       12.0110           0
      6600 MEMB     50       POPC     H2R      HAL2     0.900000E-01   1.00800           0
      6601 MEMB     50       POPC     H2S      HAL2     0.900000E-01   1.00800           0
      6602 MEMB     50       POPC     C3       CTL2     0.800000E-01   12.0110           0
      6603 MEMB     50       POPC     HX       HAL2     0.900000E-01   1.00800           0
      6604 MEMB     50       POPC     HY       HAL2     0.900000E-01   1.00800           0
      6605 MEMB     50       POPC     O31      OSL     -0.490000       15.9994           0
      6606 MEMB     50       POPC     C31      CL       0.900000       12.0110           0
      6607 MEMB     50       POPC     O32      OBL     -0.630000       15.9994           0
      6608 MEMB     50       POPC     C32      CTL2    -0.220000       12.0110           0
      6609 MEMB     50       POPC     H2X      HAL2     0.900000E-01   1.00800           0
      6610 MEMB     50       POPC     H2Y      HAL2     0.900000E-01   1.00800           0
      6611 MEMB     50       POPC     C23      CTL2    -0.180000       12.0110           0
      6612 MEMB     50       POPC     H3R      HAL2     0.900000E-01   1.00800           0
      6613 MEMB     50       POPC     H3S      HAL2     0.900000E-01   1.00800           0
      6614 MEMB     50       POPC     C24      CTL2    -0.180000       12.0110           0
      6615 MEMB     50       POPC     H4R      HAL2     0.900000E-01   1.00800           0
      6616 MEMB     50       POPC     H4S      HAL2     0.900000E-01   1.00800           0
      6617 MEMB     50       POPC     C25      CTL2    -0.180000       12.0110           0
      6618 MEMB     50       POPC     H5R      HAL2     0.900000E-01   1.00800           0
      6619 MEMB     50       POPC     H5S      HAL2     0.900000E-01   1.00800           0
      6620 MEMB     50       POPC     C26      CTL2    -0.180000       12.0110           0
      6621 MEMB     50       POPC     H6R      HAL2     0.900000E-01   1.00800           0
      6622 MEMB     50       POPC     H6S      HAL2     0.900000E-01   1.00800           0
      6623 MEMB     50       POPC     C27      CTL2    -0.180000       12.0110           0
      6624 MEMB     50       POPC     H7R      HAL2     0.900000E-01   1.00800           0
      6625 MEMB     50       POPC     H7S      HAL2     0.900000E-01   1.00800           0
      6626 MEMB     50       POPC     C28      CTL2    -0.180000       12.0110           0
      6627 MEMB     50       POPC     H8R      HAL2     0.900000E-01   1.00800           0
      6628 MEMB     50       POPC     H8S      HAL2     0.900000E-01   1.00800           0
      6629 MEMB     50       POPC     C29      CEL1    -0.150000       12.0110           0
      6630 MEMB     50       POPC     H91      HEL1     0.150000       1.00800           0
      6631 MEMB     50       POPC     C210     CEL1    -0.150000       12.0110           0
      6632 MEMB     50       POPC     H101     HEL1     0.150000       1.00800           0
      6633 MEMB     50       POPC     C211     CTL2    -0.180000       12.0110           0
      6634 MEMB     50       POPC     H11R     HAL2     0.900000E-01   1.00800           0
      6635 MEMB     50       POPC     H11S     HAL2     0.900000E-01   1.00800           0
      6636 MEMB     50       POPC     C212     CTL2    -0.180000       12.0110           0
      6637 MEMB     50       POPC     H12R     HAL2     0.900000E-01   1.00800           0
      6638 MEMB     50       POPC     H12S     HAL2     0.900000E-01   1.00800           0
      6639 MEMB     50       POPC     C213     CTL2    -0.180000       12.0110           0
      6640 MEMB     50       POPC     H13R     HAL2     0.900000E-01   1.00800           0
      6641 MEMB     50       POPC     H13S     HAL2     0.900000E-01   1.00800           0
      6642 MEMB     50       POPC     C214     CTL2    -0.180000       12.0110           0
      6643 MEMB     50       POPC     H14R     HAL2     0.900000E-01   1.00800           0
      6644 MEMB     50       POPC     H14S     HAL2     0.900000E-01   1.00800           0
      6645 MEMB     50       POPC     C215     CTL2    -0.180000       12.0110           0
      6646 MEMB     50       POPC     H15R     HAL2     0.900000E-01   1.00800           0
      6647 MEMB     50       POPC     H15S     HAL2     0.900000E-01   1.00800           0
      6648 MEMB     50       POPC     C216     CTL2    -0.180000       12.0110           0
      6649 MEMB     50       POPC     H16R     HAL2     0.900000E-01   1.00800           0
      6650 MEMB     50       POPC     H16S     HAL2     0.900000E-01   1.00800           0
      6651 MEMB     50       POPC     C217     CTL2    -0.180000       12.0110           0
      6652 MEMB     50       POPC     H17R     HAL2     0.900000E-01   1.00800           0
      6653 MEMB     50       POPC     H17S     HAL2     0.900000E-01   1.00800           0
      6654 MEMB     50       POPC     C218     CTL3    -0.270000       12.0110           0
      6655 MEMB     50       POPC     H18R     HAL3     0.900000E-01   1.00800           0
      6656 MEMB     50       POPC     H18S     HAL3     0.900000E-01   1.00800           0
      6657 MEMB     50       POPC     H18T     HAL3     0.900000E-01   1.00800           0
      6658 MEMB     50       POPC     C33      CTL2    -0.180000       12.0110           0
      6659 MEMB     50       POPC     H3X      HAL2     0.900000E-01   1.00800           0
      6660 MEMB     50       POPC     H3Y      HAL2     0.900000E-01   1.00800           0
      6661 MEMB     50       POPC     C34      CTL2    -0.180000       12.0110           0
      6662 MEMB     50       POPC     H4X      HAL2     0.900000E-01   1.00800           0
      6663 MEMB     50       POPC     H4Y      HAL2     0.900000E-01   1.00800           0
      6664 MEMB     50       POPC     C35      CTL2    -0.180000       12.0110           0
      6665 MEMB     50       POPC     H5X      HAL2     0.900000E-01   1.00800           0
      6666 MEMB     50       POPC     H5Y      HAL2     0.900000E-01   1.00800           0
      6667 MEMB     50       POPC     C36      CTL2    -0.180000       12.0110           0
      6668 MEMB     50       POPC     H6X      HAL2     0.900000E-01   1.00800           0
      6669 MEMB     50       POPC     H6Y      HAL2     0.900000E-01   1.00800           0
      6670 MEMB     50       POPC     C37      CTL2    -0.180000       12.0110           0
      6671 MEMB     50       POPC     H7X      HAL2     0.900000E-01   1.00800           0
      6672 MEMB     50       POPC     H7Y      HAL2     0.900000E-01   1.00800           0
      6673 MEMB     50       POPC     C38      CTL2    -0.180000       12.0110           0
      6674 MEMB     50       POPC     H8X      HAL2     0.900000E-01   1.00800           0
      6675 MEMB     50       POPC     H8Y      HAL2     0.900000E-01   1.00800           0
      6676 MEMB     50       POPC     C39      CTL2    -0.180000       12.0110           0
      6677 MEMB     50       POPC     H9X      HAL2     0.900000E-01   1.00800           0
      6678 MEMB     50       POPC     H9Y      HAL2     0.900000E-01   1.00800           0
      6679 MEMB     50       POPC     C310     CTL2    -0.180000       12.0110           0
      6680 MEMB     50       POPC     H10X     HAL2     0.900000E-01   1.00800           0
      6681 MEMB     50       POPC     H10Y     HAL2     0.900000E-01   1.00800           0
      6682 MEMB     50       POPC     C311     CTL2    -0.180000       12.0110           0
      6683 MEMB     50       POPC     H11X     HAL2     0.900000E-01   1.00800           0
      6684 MEMB     50       POPC     H11Y     HAL2     0.900000E-01   1.00800           0
      6685 MEMB     50       POPC     C312     CTL2    -0.180000       12.0110           0
      6686 MEMB     50       POPC     H12X     HAL2     0.900000E-01   1.00800           0
      6687 MEMB     50       POPC     H12Y     HAL2     0.900000E-01   1.00800           0
      6688 MEMB     50       POPC     C313     CTL2    -0.180000       12.0110           0
      6689 MEMB     50       POPC     H13X     HAL2     0.900000E-01   1.00800           0
      6690 MEMB     50       POPC     H13Y     HAL2     0.900000E-01   1.00800           0
      6691 MEMB     50       POPC     C314     CTL2    -0.180000       12.0110           0
      6692 MEMB     50       POPC     H14X     HAL2     0.900000E-01   1.00800           0
      6693 MEMB     50       POPC     H14Y     HAL2     0.900000E-01   1.00800           0
      6694 MEMB     50       POPC     C315     CTL2    -0.180000       12.0110           0
      6695 MEMB     50       POPC     H15X     HAL2     0.900000E-01   1.00800           0
      6696 MEMB     50       POPC     H15Y     HAL2     0.900000E-01   1.00800           0
      6697 MEMB     50       POPC     C316     CTL3    -0.270000       12.0110           0
      6698 MEMB     50       POPC     H16X     HAL3     0.900000E-01   1.00800           0
      6699 MEMB     50       POPC     H16Y     HAL3     0.900000E-01   1.00800           0
      6700 MEMB     50       POPC     H16Z     HAL3     0.900000E-01   1.00800           0
      6701 MEMB     51       POPC     N        NTL     -0.600000       14.0070           0
      6702 MEMB     51       POPC     C12      CTL2    -0.100000       12.0110           0
      6703 MEMB     51       POPC     H12A     HL       0.250000       1.00800           0
      6704 MEMB     51       POPC     H12B     HL       0.250000       1.00800           0
      6705 MEMB     51       POPC     C13      CTL5    -0.350000       12.0110           0
      6706 MEMB     51       POPC     H13A     HL       0.250000       1.00800           0
      6707 MEMB     51       POPC     H13B     HL       0.250000       1.00800           0
      6708 MEMB     51       POPC     H13C     HL       0.250000       1.00800           0
      6709 MEMB     51       POPC     C14      CTL5    -0.350000       12.0110           0
      6710 MEMB     51       POPC     H14A     HL       0.250000       1.00800           0
      6711 MEMB     51       POPC     H14B     HL       0.250000       1.00800           0
      6712 MEMB     51       POPC     H14C     HL       0.250000       1.00800           0
      6713 MEMB     51       POPC     C15      CTL5    -0.350000       12.0110           0
      6714 MEMB     51       POPC     H15A     HL       0.250000       1.00800           0
      6715 MEMB     51       POPC     H15B     HL       0.250000       1.00800           0
      6716 MEMB     51       POPC     H15C     HL       0.250000       1.00800           0
      6717 MEMB     51       POPC     C11      CTL2    -0.800000E-01   12.0110           0
      6718 MEMB     51       POPC     H11A     HAL2     0.900000E-01   1.00800           0
      6719 MEMB     51       POPC     H11B     HAL2     0.900000E-01   1.00800           0
      6720 MEMB     51       POPC     P        PL        1.50000       30.9740           0
      6721 MEMB     51       POPC     O13      O2L     -0.780000       15.9994           0
      6722 MEMB     51       POPC     O14      O2L     -0.780000       15.9994           0
      6723 MEMB     51       POPC     O12      OSLP    -0.570000       15.9994           0
      6724 MEMB     51       POPC     O11      OSLP    -0.570000       15.9994           0
      6725 MEMB     51       POPC     C1       CTL2    -0.800000E-01   12.0110           0
      6726 MEMB     51       POPC     HA       HAL2     0.900000E-01   1.00800           0
      6727 MEMB     51       POPC     HB       HAL2     0.900000E-01   1.00800           0
      6728 MEMB     51       POPC     C2       CTL1     0.170000       12.0110           0
      6729 MEMB     51       POPC     HS       HAL1     0.900000E-01   1.00800           0
      6730 MEMB     51       POPC     O21      OSL     -0.490000       15.9994           0
      6731 MEMB     51       POPC     C21      CL       0.900000       12.0110           0
      6732 MEMB     51       POPC     O22      OBL     -0.630000       15.9994           0
      6733 MEMB     51       POPC     C22      CTL2    -0.220000       12.0110           0
      6734 MEMB     51       POPC     H2R      HAL2     0.900000E-01   1.00800           0
      6735 MEMB     51       POPC     H2S      HAL2     0.900000E-01   1.00800           0
      6736 MEMB     51       POPC     C3       CTL2     0.800000E-01   12.0110           0
      6737 MEMB     51       POPC     HX       HAL2     0.900000E-01   1.00800           0
      6738 MEMB     51       POPC     HY       HAL2     0.900000E-01   1.00800           0
      6739 MEMB     51       POPC     O31      OSL     -0.490000       15.9994           0
      6740 MEMB     51       POPC     C31      CL       0.900000       12.0110           0
      6741 MEMB     51       POPC     O32      OBL     -0.630000       15.9994           0
      6742 MEMB     51       POPC     C32      CTL2    -0.220000       12.0110           0
      6743 MEMB     51       POPC     H2X      HAL2     0.900000E-01   1.00800           0
      6744 MEMB     51       POPC     H2Y      HAL2     0.900000E-01   1.00800           0
      6745 MEMB     51       POPC     C23      CTL2    -0.180000       12.0110           0
      6746 MEMB     51       POPC     H3R      HAL2     0.900000E-01   1.00800           0
      6747 MEMB     51       POPC     H3S      HAL2     0.900000E-01   1.00800           0
      6748 MEMB     51       POPC     C24      CTL2    -0.180000       12.0110           0
      6749 MEMB     51       POPC     H4R      HAL2     0.900000E-01   1.00800           0
      6750 MEMB     51       POPC     H4S      HAL2     0.900000E-01   1.00800           0
      6751 MEMB     51       POPC     C25      CTL2    -0.180000       12.0110           0
      6752 MEMB     51       POPC     H5R      HAL2     0.900000E-01   1.00800           0
      6753 MEMB     51       POPC     H5S      HAL2     0.900000E-01   1.00800           0
      6754 MEMB     51       POPC     C26      CTL2    -0.180000       12.0110           0
      6755 MEMB     51       POPC     H6R      HAL2     0.900000E-01   1.00800           0
      6756 MEMB     51       POPC     H6S      HAL2     0.900000E-01   1.00800           0
      6757 MEMB     51       POPC     C27      CTL2    -0.180000       12.0110           0
      6758 MEMB     51       POPC     H7R      HAL2     0.900000E-01   1.00800           0
      6759 MEMB     51       POPC     H7S      HAL2     0.900000E-01   1.00800           0
      6760 MEMB     51       POPC     C28      CTL2    -0.180000       12.0110           0
      6761 MEMB     51       POPC     H8R      HAL2     0.900000E-01   1.00800           0
      6762 MEMB     51       POPC     H8S      HAL2     0.900000E-01   1.00800           0
      6763 MEMB     51       POPC     C29      CEL1    -0.150000       12.0110           0
      6764 MEMB     51       POPC     H91      HEL1     0.150000       1.00800           0
      6765 MEMB     51       POPC     C210     CEL1    -0.150000       12.0110           0
      6766 MEMB     51       POPC     H101     HEL1     0.150000       1.00800           0
      6767 MEMB     51       POPC     C211     CTL2    -0.180000       12.0110           0
      6768 MEMB     51       POPC     H11R     HAL2     0.900000E-01   1.00800           0
      6769 MEMB     51       POPC     H11S     HAL2     0.900000E-01   1.00800           0
      6770 MEMB     51       POPC     C212     CTL2    -0.180000       12.0110           0
      6771 MEMB     51       POPC     H12R     HAL2     0.900000E-01   1.00800           0
      6772 MEMB     51       POPC     H12S     HAL2     0.900000E-01   1.00800           0
      6773 MEMB     51       POPC     C213     CTL2    -0.180000       12.0110           0
      6774 MEMB     51       POPC     H13R     HAL2     0.900000E-01   1.00800           0
      6775 MEMB     51       POPC     H13S     HAL2     0.900000E-01   1.00800           0
      6776 MEMB     51       POPC     C214     CTL2    -0.180000       12.0110           0
      6777 MEMB     51       POPC     H14R     HAL2     0.900000E-01   1.00800           0
      6778 MEMB     51       POPC     H14S     HAL2     0.900000E-01   1.00800           0
      6779 MEMB     51       POPC     C215     CTL2    -0.180000       12.0110           0
      6780 MEMB     51       POPC     H15R     HAL2     0.900000E-01   1.00800           0
      6781 MEMB     51       POPC     H15S     HAL2     0.900000E-01   1.00800           0
      6782 MEMB     51       POPC     C216     CTL2    -0.180000       12.0110           0
      6783 MEMB     51       POPC     H16R     HAL2     0.900000E-01   1.00800           0
      6784 MEMB     51       POPC     H16S     HAL2     0.900000E-01   1.00800           0
      6785 MEMB     51       POPC     C217     CTL2    -0.180000       12.0110           0
      6786 MEMB     51       POPC     H17R     HAL2     0.900000E-01   1.00800           0
      6787 MEMB     51       POPC     H17S     HAL2     0.900000E-01   1.00800           0
      6788 MEMB     51       POPC     C218     CTL3    -0.270000       12.0110           0
      6789 MEMB     51       POPC     H18R     HAL3     0.900000E-01   1.00800           0
      6790 MEMB     51       POPC     H18S     HAL3     0.900000E-01   1.00800           0
      6791 MEMB     51       POPC     H18T     HAL3     0.900000E-01   1.00800           0
      6792 MEMB     51       POPC     C33      CTL2    -0.180000       12.0110           0
      6793 MEMB     51       POPC     H3X      HAL2     0.900000E-01   1.00800           0
      6794 MEMB     51       POPC     H3Y      HAL2     0.900000E-01   1.00800           0
      6795 MEMB     51       POPC     C34      CTL2    -0.180000       12.0110           0
      6796 MEMB     51       POPC     H4X      HAL2     0.900000E-01   1.00800           0
      6797 MEMB     51       POPC     H4Y      HAL2     0.900000E-01   1.00800           0
      6798 MEMB     51       POPC     C35      CTL2    -0.180000       12.0110           0
      6799 MEMB     51       POPC     H5X      HAL2     0.900000E-01   1.00800           0
      6800 MEMB     51       POPC     H5Y      HAL2     0.900000E-01   1.00800           0
      6801 MEMB     51       POPC     C36      CTL2    -0.180000       12.0110           0
      6802 MEMB     51       POPC     H6X      HAL2     0.900000E-01   1.00800           0
      6803 MEMB     51       POPC     H6Y      HAL2     0.900000E-01   1.00800           0
      6804 MEMB     51       POPC     C37      CTL2    -0.180000       12.0110           0
      6805 MEMB     51       POPC     H7X      HAL2     0.900000E-01   1.00800           0
      6806 MEMB     51       POPC     H7Y      HAL2     0.900000E-01   1.00800           0
      6807 MEMB     51       POPC     C38      CTL2    -0.180000       12.0110           0
      6808 MEMB     51       POPC     H8X      HAL2     0.900000E-01   1.00800           0
      6809 MEMB     51       POPC     H8Y      HAL2     0.900000E-01   1.00800           0
      6810 MEMB     51       POPC     C39      CTL2    -0.180000       12.0110           0
      6811 MEMB     51       POPC     H9X      HAL2     0.900000E-01   1.00800           0
      6812 MEMB     51       POPC     H9Y      HAL2     0.900000E-01   1.00800           0
      6813 MEMB     51       POPC     C310     CTL2    -0.180000       12.0110           0
      6814 MEMB     51       POPC     H10X     HAL2     0.900000E-01   1.00800           0
      6815 MEMB     51       POPC     H10Y     HAL2     0.900000E-01   1.00800           0
      6816 MEMB     51       POPC     C311     CTL2    -0.180000       12.0110           0
      6817 MEMB     51       POPC     H11X     HAL2     0.900000E-01   1.00800           0
      6818 MEMB     51       POPC     H11Y     HAL2     0.900000E-01   1.00800           0
      6819 MEMB     51       POPC     C312     CTL2    -0.180000       12.0110           0
      6820 MEMB     51       POPC     H12X     HAL2     0.900000E-01   1.00800           0
      6821 MEMB     51       POPC     H12Y     HAL2     0.900000E-01   1.00800           0
      6822 MEMB     51       POPC     C313     CTL2    -0.180000       12.0110           0
      6823 MEMB     51       POPC     H13X     HAL2     0.900000E-01   1.00800           0
      6824 MEMB     51       POPC     H13Y     HAL2     0.900000E-01   1.00800           0
      6825 MEMB     51       POPC     C314     CTL2    -0.180000       12.0110           0
      6826 MEMB     51       POPC     H14X     HAL2     0.900000E-01   1.00800           0
      6827 MEMB     51       POPC     H14Y     HAL2     0.900000E-01   1.00800           0
      6828 MEMB     51       POPC     C315     CTL2    -0.180000       12.0110           0
      6829 MEMB     51       POPC     H15X     HAL2     0.900000E-01   1.00800           0
      6830 MEMB     51       POPC     H15Y     HAL2     0.900000E-01   1.00800           0
      6831 MEMB     51       POPC     C316     CTL3    -0.270000       12.0110           0
      6832 MEMB     51       POPC     H16X     HAL3     0.900000E-01   1.00800           0
      6833 MEMB     51       POPC     H16Y     HAL3     0.900000E-01   1.00800           0
      6834 MEMB     51       POPC     H16Z     HAL3     0.900000E-01   1.00800           0
      6835 MEMB     52       POPC     N        NTL     -0.600000       14.0070           0
      6836 MEMB     52       POPC     C12      CTL2    -0.100000       12.0110           0
      6837 MEMB     52       POPC     H12A     HL       0.250000       1.00800           0
      6838 MEMB     52       POPC     H12B     HL       0.250000       1.00800           0
      6839 MEMB     52       POPC     C13      CTL5    -0.350000       12.0110           0
      6840 MEMB     52       POPC     H13A     HL       0.250000       1.00800           0
      6841 MEMB     52       POPC     H13B     HL       0.250000       1.00800           0
      6842 MEMB     52       POPC     H13C     HL       0.250000       1.00800           0
      6843 MEMB     52       POPC     C14      CTL5    -0.350000       12.0110           0
      6844 MEMB     52       POPC     H14A     HL       0.250000       1.00800           0
      6845 MEMB     52       POPC     H14B     HL       0.250000       1.00800           0
      6846 MEMB     52       POPC     H14C     HL       0.250000       1.00800           0
      6847 MEMB     52       POPC     C15      CTL5    -0.350000       12.0110           0
      6848 MEMB     52       POPC     H15A     HL       0.250000       1.00800           0
      6849 MEMB     52       POPC     H15B     HL       0.250000       1.00800           0
      6850 MEMB     52       POPC     H15C     HL       0.250000       1.00800           0
      6851 MEMB     52       POPC     C11      CTL2    -0.800000E-01   12.0110           0
      6852 MEMB     52       POPC     H11A     HAL2     0.900000E-01   1.00800           0
      6853 MEMB     52       POPC     H11B     HAL2     0.900000E-01   1.00800           0
      6854 MEMB     52       POPC     P        PL        1.50000       30.9740           0
      6855 MEMB     52       POPC     O13      O2L     -0.780000       15.9994           0
      6856 MEMB     52       POPC     O14      O2L     -0.780000       15.9994           0
      6857 MEMB     52       POPC     O12      OSLP    -0.570000       15.9994           0
      6858 MEMB     52       POPC     O11      OSLP    -0.570000       15.9994           0
      6859 MEMB     52       POPC     C1       CTL2    -0.800000E-01   12.0110           0
      6860 MEMB     52       POPC     HA       HAL2     0.900000E-01   1.00800           0
      6861 MEMB     52       POPC     HB       HAL2     0.900000E-01   1.00800           0
      6862 MEMB     52       POPC     C2       CTL1     0.170000       12.0110           0
      6863 MEMB     52       POPC     HS       HAL1     0.900000E-01   1.00800           0
      6864 MEMB     52       POPC     O21      OSL     -0.490000       15.9994           0
      6865 MEMB     52       POPC     C21      CL       0.900000       12.0110           0
      6866 MEMB     52       POPC     O22      OBL     -0.630000       15.9994           0
      6867 MEMB     52       POPC     C22      CTL2    -0.220000       12.0110           0
      6868 MEMB     52       POPC     H2R      HAL2     0.900000E-01   1.00800           0
      6869 MEMB     52       POPC     H2S      HAL2     0.900000E-01   1.00800           0
      6870 MEMB     52       POPC     C3       CTL2     0.800000E-01   12.0110           0
      6871 MEMB     52       POPC     HX       HAL2     0.900000E-01   1.00800           0
      6872 MEMB     52       POPC     HY       HAL2     0.900000E-01   1.00800           0
      6873 MEMB     52       POPC     O31      OSL     -0.490000       15.9994           0
      6874 MEMB     52       POPC     C31      CL       0.900000       12.0110           0
      6875 MEMB     52       POPC     O32      OBL     -0.630000       15.9994           0
      6876 MEMB     52       POPC     C32      CTL2    -0.220000       12.0110           0
      6877 MEMB     52       POPC     H2X      HAL2     0.900000E-01   1.00800           0
      6878 MEMB     52       POPC     H2Y      HAL2     0.900000E-01   1.00800           0
      6879 MEMB     52       POPC     C23      CTL2    -0.180000       12.0110           0
      6880 MEMB     52       POPC     H3R      HAL2     0.900000E-01   1.00800           0
      6881 MEMB     52       POPC     H3S      HAL2     0.900000E-01   1.00800           0
      6882 MEMB     52       POPC     C24      CTL2    -0.180000       12.0110           0
      6883 MEMB     52       POPC     H4R      HAL2     0.900000E-01   1.00800           0
      6884 MEMB     52       POPC     H4S      HAL2     0.900000E-01   1.00800           0
      6885 MEMB     52       POPC     C25      CTL2    -0.180000       12.0110           0
      6886 MEMB     52       POPC     H5R      HAL2     0.900000E-01   1.00800           0
      6887 MEMB     52       POPC     H5S      HAL2     0.900000E-01   1.00800           0
      6888 MEMB     52       POPC     C26      CTL2    -0.180000       12.0110           0
      6889 MEMB     52       POPC     H6R      HAL2     0.900000E-01   1.00800           0
      6890 MEMB     52       POPC     H6S      HAL2     0.900000E-01   1.00800           0
      6891 MEMB     52       POPC     C27      CTL2    -0.180000       12.0110           0
      6892 MEMB     52       POPC     H7R      HAL2     0.900000E-01   1.00800           0
      6893 MEMB     52       POPC     H7S      HAL2     0.900000E-01   1.00800           0
      6894 MEMB     52       POPC     C28      CTL2    -0.180000       12.0110           0
      6895 MEMB     52       POPC     H8R      HAL2     0.900000E-01   1.00800           0
      6896 MEMB     52       POPC     H8S      HAL2     0.900000E-01   1.00800           0
      6897 MEMB     52       POPC     C29      CEL1    -0.150000       12.0110           0
      6898 MEMB     52       POPC     H91      HEL1     0.150000       1.00800           0
      6899 MEMB     52       POPC     C210     CEL1    -0.150000       12.0110           0
      6900 MEMB     52       POPC     H101     HEL1     0.150000       1.00800           0
      6901 MEMB     52       POPC     C211     CTL2    -0.180000       12.0110           0
      6902 MEMB     52       POPC     H11R     HAL2     0.900000E-01   1.00800           0
      6903 MEMB     52       POPC     H11S     HAL2     0.900000E-01   1.00800           0
      6904 MEMB     52       POPC     C212     CTL2    -0.180000       12.0110           0
      6905 MEMB     52       POPC     H12R     HAL2     0.900000E-01   1.00800           0
      6906 MEMB     52       POPC     H12S     HAL2     0.900000E-01   1.00800           0
      6907 MEMB     52       POPC     C213     CTL2    -0.180000       12.0110           0
      6908 MEMB     52       POPC     H13R     HAL2     0.900000E-01   1.00800           0
      6909 MEMB     52       POPC     H13S     HAL2     0.900000E-01   1.00800           0
      6910 MEMB     52       POPC     C214     CTL2    -0.180000       12.0110           0
      6911 MEMB     52       POPC     H14R     HAL2     0.900000E-01   1.00800           0
      6912 MEMB     52       POPC     H14S     HAL2     0.900000E-01   1.00800           0
      6913 MEMB     52       POPC     C215     CTL2    -0.180000       12.0110           0
      6914 MEMB     52       POPC     H15R     HAL2     0.900000E-01   1.00800           0
      6915 MEMB     52       POPC     H15S     HAL2     0.900000E-01   1.00800           0
      6916 MEMB     52       POPC     C216     CTL2    -0.180000       12.0110           0
      6917 MEMB     52       POPC     H16R     HAL2     0.900000E-01   1.00800           0
      6918 MEMB     52       POPC     H16S     HAL2     0.900000E-01   1.00800           0
      6919 MEMB     52       POPC     C217     CTL2    -0.180000       12.0110           0
      6920 MEMB     52       POPC     H17R     HAL2     0.900000E-01   1.00800           0
      6921 MEMB     52       POPC     H17S     HAL2     0.900000E-01   1.00800           0
      6922 MEMB     52       POPC     C218     CTL3    -0.270000       12.0110           0
      6923 MEMB     52       POPC     H18R     HAL3     0.900000E-01   1.00800           0
      6924 MEMB     52       POPC     H18S     HAL3     0.900000E-01   1.00800           0
      6925 MEMB     52       POPC     H18T     HAL3     0.900000E-01   1.00800           0
      6926 MEMB     52       POPC     C33      CTL2    -0.180000       12.0110           0
      6927 MEMB     52       POPC     H3X      HAL2     0.900000E-01   1.00800           0
      6928 MEMB     52       POPC     H3Y      HAL2     0.900000E-01   1.00800           0
      6929 MEMB     52       POPC     C34      CTL2    -0.180000       12.0110           0
      6930 MEMB     52       POPC     H4X      HAL2     0.900000E-01   1.00800           0
      6931 MEMB     52       POPC     H4Y      HAL2     0.900000E-01   1.00800           0
      6932 MEMB     52       POPC     C35      CTL2    -0.180000       12.0110           0
      6933 MEMB     52       POPC     H5X      HAL2     0.900000E-01   1.00800           0
      6934 MEMB     52       POPC     H5Y      HAL2     0.900000E-01   1.00800           0
      6935 MEMB     52       POPC     C36      CTL2    -0.180000       12.0110           0
      6936 MEMB     52       POPC     H6X      HAL2     0.900000E-01   1.00800           0
      6937 MEMB     52       POPC     H6Y      HAL2     0.900000E-01   1.00800           0
      6938 MEMB     52       POPC     C37      CTL2    -0.180000       12.0110           0
      6939 MEMB     52       POPC     H7X      HAL2     0.900000E-01   1.00800           0
      6940 MEMB     52       POPC     H7Y      HAL2     0.900000E-01   1.00800           0
      6941 MEMB     52       POPC     C38      CTL2    -0.180000       12.0110           0
      6942 MEMB     52       POPC     H8X      HAL2     0.900000E-01   1.00800           0
      6943 MEMB     52       POPC     H8Y      HAL2     0.900000E-01   1.00800           0
      6944 MEMB     52       POPC     C39      CTL2    -0.180000       12.0110           0
      6945 MEMB     52       POPC     H9X      HAL2     0.900000E-01   1.00800           0
      6946 MEMB     52       POPC     H9Y      HAL2     0.900000E-01   1.00800           0
      6947 MEMB     52       POPC     C310     CTL2    -0.180000       12.0110           0
      6948 MEMB     52       POPC     H10X     HAL2     0.900000E-01   1.00800           0
      6949 MEMB     52       POPC     H10Y     HAL2     0.900000E-01   1.00800           0
      6950 MEMB     52       POPC     C311     CTL2    -0.180000       12.0110           0
      6951 MEMB     52       POPC     H11X     HAL2     0.900000E-01   1.00800           0
      6952 MEMB     52       POPC     H11Y     HAL2     0.900000E-01   1.00800           0
      6953 MEMB     52       POPC     C312     CTL2    -0.180000       12.0110           0
      6954 MEMB     52       POPC     H12X     HAL2     0.900000E-01   1.00800           0
      6955 MEMB     52       POPC     H12Y     HAL2     0.900000E-01   1.00800           0
      6956 MEMB     52       POPC     C313     CTL2    -0.180000       12.0110           0
      6957 MEMB     52       POPC     H13X     HAL2     0.900000E-01   1.00800           0
      6958 MEMB     52       POPC     H13Y     HAL2     0.900000E-01   1.00800           0
      6959 MEMB     52       POPC     C314     CTL2    -0.180000       12.0110           0
      6960 MEMB     52       POPC     H14X     HAL2     0.900000E-01   1.00800           0
      6961 MEMB     52       POPC     H14Y     HAL2     0.900000E-01   1.00800           0
      6962 MEMB     52       POPC     C315     CTL2    -0.180000       12.0110           0
      6963 MEMB     52       POPC     H15X     HAL2     0.900000E-01   1.00800           0
      6964 MEMB     52       POPC     H15Y     HAL2     0.900000E-01   1.00800           0
      6965 MEMB     52       POPC     C316     CTL3    -0.270000       12.0110           0
      6966 MEMB     52       POPC     H16X     HAL3     0.900000E-01   1.00800           0
      6967 MEMB     52       POPC     H16Y     HAL3     0.900000E-01   1.00800           0
      6968 MEMB     52       POPC     H16Z     HAL3     0.900000E-01   1.00800           0
      6969 MEMB     53       POPC     N        NTL     -0.600000       14.0070           0
      6970 MEMB     53       POPC     C12      CTL2    -0.100000       12.0110           0
      6971 MEMB     53       POPC     H12A     HL       0.250000       1.00800           0
      6972 MEMB     53       POPC     H12B     HL       0.250000       1.00800           0
      6973 MEMB     53       POPC     C13      CTL5    -0.350000       12.0110           0
      6974 MEMB     53       POPC     H13A     HL       0.250000       1.00800           0
      6975 MEMB     53       POPC     H13B     HL       0.250000       1.00800           0
      6976 MEMB     53       POPC     H13C     HL       0.250000       1.00800           0
      6977 MEMB     53       POPC     C14      CTL5    -0.350000       12.0110           0
      6978 MEMB     53       POPC     H14A     HL       0.250000       1.00800           0
      6979 MEMB     53       POPC     H14B     HL       0.250000       1.00800           0
      6980 MEMB     53       POPC     H14C     HL       0.250000       1.00800           0
      6981 MEMB     53       POPC     C15      CTL5    -0.350000       12.0110           0
      6982 MEMB     53       POPC     H15A     HL       0.250000       1.00800           0
      6983 MEMB     53       POPC     H15B     HL       0.250000       1.00800           0
      6984 MEMB     53       POPC     H15C     HL       0.250000       1.00800           0
      6985 MEMB     53       POPC     C11      CTL2    -0.800000E-01   12.0110           0
      6986 MEMB     53       POPC     H11A     HAL2     0.900000E-01   1.00800           0
      6987 MEMB     53       POPC     H11B     HAL2     0.900000E-01   1.00800           0
      6988 MEMB     53       POPC     P        PL        1.50000       30.9740           0
      6989 MEMB     53       POPC     O13      O2L     -0.780000       15.9994           0
      6990 MEMB     53       POPC     O14      O2L     -0.780000       15.9994           0
      6991 MEMB     53       POPC     O12      OSLP    -0.570000       15.9994           0
      6992 MEMB     53       POPC     O11      OSLP    -0.570000       15.9994           0
      6993 MEMB     53       POPC     C1       CTL2    -0.800000E-01   12.0110           0
      6994 MEMB     53       POPC     HA       HAL2     0.900000E-01   1.00800           0
      6995 MEMB     53       POPC     HB       HAL2     0.900000E-01   1.00800           0
      6996 MEMB     53       POPC     C2       CTL1     0.170000       12.0110           0
      6997 MEMB     53       POPC     HS       HAL1     0.900000E-01   1.00800           0
      6998 MEMB     53       POPC     O21      OSL     -0.490000       15.9994           0
      6999 MEMB     53       POPC     C21      CL       0.900000       12.0110           0
      7000 MEMB     53       POPC     O22      OBL     -0.630000       15.9994           0
      7001 MEMB     53       POPC     C22      CTL2    -0.220000       12.0110           0
      7002 MEMB     53       POPC     H2R      HAL2     0.900000E-01   1.00800           0
      7003 MEMB     53       POPC     H2S      HAL2     0.900000E-01   1.00800           0
      7004 MEMB     53       POPC     C3       CTL2     0.800000E-01   12.0110           0
      7005 MEMB     53       POPC     HX       HAL2     0.900000E-01   1.00800           0
      7006 MEMB     53       POPC     HY       HAL2     0.900000E-01   1.00800           0
      7007 MEMB     53       POPC     O31      OSL     -0.490000       15.9994           0
      7008 MEMB     53       POPC     C31      CL       0.900000       12.0110           0
      7009 MEMB     53       POPC     O32      OBL     -0.630000       15.9994           0
      7010 MEMB     53       POPC     C32      CTL2    -0.220000       12.0110           0
      7011 MEMB     53       POPC     H2X      HAL2     0.900000E-01   1.00800           0
      7012 MEMB     53       POPC     H2Y      HAL2     0.900000E-01   1.00800           0
      7013 MEMB     53       POPC     C23      CTL2    -0.180000       12.0110           0
      7014 MEMB     53       POPC     H3R      HAL2     0.900000E-01   1.00800           0
      7015 MEMB     53       POPC     H3S      HAL2     0.900000E-01   1.00800           0
      7016 MEMB     53       POPC     C24      CTL2    -0.180000       12.0110           0
      7017 MEMB     53       POPC     H4R      HAL2     0.900000E-01   1.00800           0
      7018 MEMB     53       POPC     H4S      HAL2     0.900000E-01   1.00800           0
      7019 MEMB     53       POPC     C25      CTL2    -0.180000       12.0110           0
      7020 MEMB     53       POPC     H5R      HAL2     0.900000E-01   1.00800           0
      7021 MEMB     53       POPC     H5S      HAL2     0.900000E-01   1.00800           0
      7022 MEMB     53       POPC     C26      CTL2    -0.180000       12.0110           0
      7023 MEMB     53       POPC     H6R      HAL2     0.900000E-01   1.00800           0
      7024 MEMB     53       POPC     H6S      HAL2     0.900000E-01   1.00800           0
      7025 MEMB     53       POPC     C27      CTL2    -0.180000       12.0110           0
      7026 MEMB     53       POPC     H7R      HAL2     0.900000E-01   1.00800           0
      7027 MEMB     53       POPC     H7S      HAL2     0.900000E-01   1.00800           0
      7028 MEMB     53       POPC     C28      CTL2    -0.180000       12.0110           0
      7029 MEMB     53       POPC     H8R      HAL2     0.900000E-01   1.00800           0
      7030 MEMB     53       POPC     H8S      HAL2     0.900000E-01   1.00800           0
      7031 MEMB     53       POPC     C29      CEL1    -0.150000       12.0110           0
      7032 MEMB     53       POPC     H91      HEL1     0.150000       1.00800           0
      7033 MEMB     53       POPC     C210     CEL1    -0.150000       12.0110           0
      7034 MEMB     53       POPC     H101     HEL1     0.150000       1.00800           0
      7035 MEMB     53       POPC     C211     CTL2    -0.180000       12.0110           0
      7036 MEMB     53       POPC     H11R     HAL2     0.900000E-01   1.00800           0
      7037 MEMB     53       POPC     H11S     HAL2     0.900000E-01   1.00800           0
      7038 MEMB     53       POPC     C212     CTL2    -0.180000       12.0110           0
      7039 MEMB     53       POPC     H12R     HAL2     0.900000E-01   1.00800           0
      7040 MEMB     53       POPC     H12S     HAL2     0.900000E-01   1.00800           0
      7041 MEMB     53       POPC     C213     CTL2    -0.180000       12.0110           0
      7042 MEMB     53       POPC     H13R     HAL2     0.900000E-01   1.00800           0
      7043 MEMB     53       POPC     H13S     HAL2     0.900000E-01   1.00800           0
      7044 MEMB     53       POPC     C214     CTL2    -0.180000       12.0110           0
      7045 MEMB     53       POPC     H14R     HAL2     0.900000E-01   1.00800           0
      7046 MEMB     53       POPC     H14S     HAL2     0.900000E-01   1.00800           0
      7047 MEMB     53       POPC     C215     CTL2    -0.180000       12.0110           0
      7048 MEMB     53       POPC     H15R     HAL2     0.900000E-01   1.00800           0
      7049 MEMB     53       POPC     H15S     HAL2     0.900000E-01   1.00800           0
      7050 MEMB     53       POPC     C216     CTL2    -0.180000       12.0110           0
      7051 MEMB     53       POPC     H16R     HAL2     0.900000E-01   1.00800           0
      7052 MEMB     53       POPC     H16S     HAL2     0.900000E-01   1.00800           0
      7053 MEMB     53       POPC     C217     CTL2    -0.180000       12.0110           0
      7054 MEMB     53       POPC     H17R     HAL2     0.900000E-01   1.00800           0
      7055 MEMB     53       POPC     H17S     HAL2     0.900000E-01   1.00800           0
      7056 MEMB     53       POPC     C218     CTL3    -0.270000       12.0110           0
      7057 MEMB     53       POPC     H18R     HAL3     0.900000E-01   1.00800           0
      7058 MEMB     53       POPC     H18S     HAL3     0.900000E-01   1.00800           0
      7059 MEMB     53       POPC     H18T     HAL3     0.900000E-01   1.00800           0
      7060 MEMB     53       POPC     C33      CTL2    -0.180000       12.0110           0
      7061 MEMB     53       POPC     H3X      HAL2     0.900000E-01   1.00800           0
      7062 MEMB     53       POPC     H3Y      HAL2     0.900000E-01   1.00800           0
      7063 MEMB     53       POPC     C34      CTL2    -0.180000       12.0110           0
      7064 MEMB     53       POPC     H4X      HAL2     0.900000E-01   1.00800           0
      7065 MEMB     53       POPC     H4Y      HAL2     0.900000E-01   1.00800           0
      7066 MEMB     53       POPC     C35      CTL2    -0.180000       12.0110           0
      7067 MEMB     53       POPC     H5X      HAL2     0.900000E-01   1.00800           0
      7068 MEMB     53       POPC     H5Y      HAL2     0.900000E-01   1.00800           0
      7069 MEMB     53       POPC     C36      CTL2    -0.180000       12.0110           0
      7070 MEMB     53       POPC     H6X      HAL2     0.900000E-01   1.00800           0
      7071 MEMB     53       POPC     H6Y      HAL2     0.900000E-01   1.00800           0
      7072 MEMB     53       POPC     C37      CTL2    -0.180000       12.0110           0
      7073 MEMB     53       POPC     H7X      HAL2     0.900000E-01   1.00800           0
      7074 MEMB     53       POPC     H7Y      HAL2     0.900000E-01   1.00800           0
      7075 MEMB     53       POPC     C38      CTL2    -0.180000       12.0110           0
      7076 MEMB     53       POPC     H8X      HAL2     0.900000E-01   1.00800           0
      7077 MEMB     53       POPC     H8Y      HAL2     0.900000E-01   1.00800           0
      7078 MEMB     53       POPC     C39      CTL2    -0.180000       12.0110           0
      7079 MEMB     53       POPC     H9X      HAL2     0.900000E-01   1.00800           0
      7080 MEMB     53       POPC     H9Y      HAL2     0.900000E-01   1.00800           0
      7081 MEMB     53       POPC     C310     CTL2    -0.180000       12.0110           0
      7082 MEMB     53       POPC     H10X     HAL2     0.900000E-01   1.00800           0
      7083 MEMB     53       POPC     H10Y     HAL2     0.900000E-01   1.00800           0
      7084 MEMB     53       POPC     C311     CTL2    -0.180000       12.0110           0
      7085 MEMB     53       POPC     H11X     HAL2     0.900000E-01   1.00800           0
      7086 MEMB     53       POPC     H11Y     HAL2     0.900000E-01   1.00800           0
      7087 MEMB     53       POPC     C312     CTL2    -0.180000       12.0110           0
      7088 MEMB     53       POPC     H12X     HAL2     0.900000E-01   1.00800           0
      7089 MEMB     53       POPC     H12Y     HAL2     0.900000E-01   1.00800           0
      7090 MEMB     53       POPC     C313     CTL2    -0.180000       12.0110           0
      7091 MEMB     53       POPC     H13X     HAL2     0.900000E-01   1.00800           0
      7092 MEMB     53       POPC     H13Y     HAL2     0.900000E-01   1.00800           0
      7093 MEMB     53       POPC     C314     CTL2    -0.180000       12.0110           0
      7094 MEMB     53       POPC     H14X     HAL2     0.900000E-01   1.00800           0
      7095 MEMB     53       POPC     H14Y     HAL2     0.900000E-01   1.00800           0
      7096 MEMB     53       POPC     C315     CTL2    -0.180000       12.0110           0
      7097 MEMB     53       POPC     H15X     HAL2     0.900000E-01   1.00800           0
      7098 MEMB     53       POPC     H15Y     HAL2     0.900000E-01   1.00800           0
      7099 MEMB     53       POPC     C316     CTL3    -0.270000       12.0110           0
      7100 MEMB     53       POPC     H16X     HAL3     0.900000E-01   1.00800           0
      7101 MEMB     53       POPC     H16Y     HAL3     0.900000E-01   1.00800           0
      7102 MEMB     53       POPC     H16Z     HAL3     0.900000E-01   1.00800           0
      7103 MEMB     54       POPC     N        NTL     -0.600000       14.0070           0
      7104 MEMB     54       POPC     C12      CTL2    -0.100000       12.0110           0
      7105 MEMB     54       POPC     H12A     HL       0.250000       1.00800           0
      7106 MEMB     54       POPC     H12B     HL       0.250000       1.00800           0
      7107 MEMB     54       POPC     C13      CTL5    -0.350000       12.0110           0
      7108 MEMB     54       POPC     H13A     HL       0.250000       1.00800           0
      7109 MEMB     54       POPC     H13B     HL       0.250000       1.00800           0
      7110 MEMB     54       POPC     H13C     HL       0.250000       1.00800           0
      7111 MEMB     54       POPC     C14      CTL5    -0.350000       12.0110           0
      7112 MEMB     54       POPC     H14A     HL       0.250000       1.00800           0
      7113 MEMB     54       POPC     H14B     HL       0.250000       1.00800           0
      7114 MEMB     54       POPC     H14C     HL       0.250000       1.00800           0
      7115 MEMB     54       POPC     C15      CTL5    -0.350000       12.0110           0
      7116 MEMB     54       POPC     H15A     HL       0.250000       1.00800           0
      7117 MEMB     54       POPC     H15B     HL       0.250000       1.00800           0
      7118 MEMB     54       POPC     H15C     HL       0.250000       1.00800           0
      7119 MEMB     54       POPC     C11      CTL2    -0.800000E-01   12.0110           0
      7120 MEMB     54       POPC     H11A     HAL2     0.900000E-01   1.00800           0
      7121 MEMB     54       POPC     H11B     HAL2     0.900000E-01   1.00800           0
      7122 MEMB     54       POPC     P        PL        1.50000       30.9740           0
      7123 MEMB     54       POPC     O13      O2L     -0.780000       15.9994           0
      7124 MEMB     54       POPC     O14      O2L     -0.780000       15.9994           0
      7125 MEMB     54       POPC     O12      OSLP    -0.570000       15.9994           0
      7126 MEMB     54       POPC     O11      OSLP    -0.570000       15.9994           0
      7127 MEMB     54       POPC     C1       CTL2    -0.800000E-01   12.0110           0
      7128 MEMB     54       POPC     HA       HAL2     0.900000E-01   1.00800           0
      7129 MEMB     54       POPC     HB       HAL2     0.900000E-01   1.00800           0
      7130 MEMB     54       POPC     C2       CTL1     0.170000       12.0110           0
      7131 MEMB     54       POPC     HS       HAL1     0.900000E-01   1.00800           0
      7132 MEMB     54       POPC     O21      OSL     -0.490000       15.9994           0
      7133 MEMB     54       POPC     C21      CL       0.900000       12.0110           0
      7134 MEMB     54       POPC     O22      OBL     -0.630000       15.9994           0
      7135 MEMB     54       POPC     C22      CTL2    -0.220000       12.0110           0
      7136 MEMB     54       POPC     H2R      HAL2     0.900000E-01   1.00800           0
      7137 MEMB     54       POPC     H2S      HAL2     0.900000E-01   1.00800           0
      7138 MEMB     54       POPC     C3       CTL2     0.800000E-01   12.0110           0
      7139 MEMB     54       POPC     HX       HAL2     0.900000E-01   1.00800           0
      7140 MEMB     54       POPC     HY       HAL2     0.900000E-01   1.00800           0
      7141 MEMB     54       POPC     O31      OSL     -0.490000       15.9994           0
      7142 MEMB     54       POPC     C31      CL       0.900000       12.0110           0
      7143 MEMB     54       POPC     O32      OBL     -0.630000       15.9994           0
      7144 MEMB     54       POPC     C32      CTL2    -0.220000       12.0110           0
      7145 MEMB     54       POPC     H2X      HAL2     0.900000E-01   1.00800           0
      7146 MEMB     54       POPC     H2Y      HAL2     0.900000E-01   1.00800           0
      7147 MEMB     54       POPC     C23      CTL2    -0.180000       12.0110           0
      7148 MEMB     54       POPC     H3R      HAL2     0.900000E-01   1.00800           0
      7149 MEMB     54       POPC     H3S      HAL2     0.900000E-01   1.00800           0
      7150 MEMB     54       POPC     C24      CTL2    -0.180000       12.0110           0
      7151 MEMB     54       POPC     H4R      HAL2     0.900000E-01   1.00800           0
      7152 MEMB     54       POPC     H4S      HAL2     0.900000E-01   1.00800           0
      7153 MEMB     54       POPC     C25      CTL2    -0.180000       12.0110           0
      7154 MEMB     54       POPC     H5R      HAL2     0.900000E-01   1.00800           0
      7155 MEMB     54       POPC     H5S      HAL2     0.900000E-01   1.00800           0
      7156 MEMB     54       POPC     C26      CTL2    -0.180000       12.0110           0
      7157 MEMB     54       POPC     H6R      HAL2     0.900000E-01   1.00800           0
      7158 MEMB     54       POPC     H6S      HAL2     0.900000E-01   1.00800           0
      7159 MEMB     54       POPC     C27      CTL2    -0.180000       12.0110           0
      7160 MEMB     54       POPC     H7R      HAL2     0.900000E-01   1.00800           0
      7161 MEMB     54       POPC     H7S      HAL2     0.900000E-01   1.00800           0
      7162 MEMB     54       POPC     C28      CTL2    -0.180000       12.0110           0
      7163 MEMB     54       POPC     H8R      HAL2     0.900000E-01   1.00800           0
      7164 MEMB     54       POPC     H8S      HAL2     0.900000E-01   1.00800           0
      7165 MEMB     54       POPC     C29      CEL1    -0.150000       12.0110           0
      7166 MEMB     54       POPC     H91      HEL1     0.150000       1.00800           0
      7167 MEMB     54       POPC     C210     CEL1    -0.150000       12.0110           0
      7168 MEMB     54       POPC     H101     HEL1     0.150000       1.00800           0
      7169 MEMB     54       POPC     C211     CTL2    -0.180000       12.0110           0
      7170 MEMB     54       POPC     H11R     HAL2     0.900000E-01   1.00800           0
      7171 MEMB     54       POPC     H11S     HAL2     0.900000E-01   1.00800           0
      7172 MEMB     54       POPC     C212     CTL2    -0.180000       12.0110           0
      7173 MEMB     54       POPC     H12R     HAL2     0.900000E-01   1.00800           0
      7174 MEMB     54       POPC     H12S     HAL2     0.900000E-01   1.00800           0
      7175 MEMB     54       POPC     C213     CTL2    -0.180000       12.0110           0
      7176 MEMB     54       POPC     H13R     HAL2     0.900000E-01   1.00800           0
      7177 MEMB     54       POPC     H13S     HAL2     0.900000E-01   1.00800           0
      7178 MEMB     54       POPC     C214     CTL2    -0.180000       12.0110           0
      7179 MEMB     54       POPC     H14R     HAL2     0.900000E-01   1.00800           0
      7180 MEMB     54       POPC     H14S     HAL2     0.900000E-01   1.00800           0
      7181 MEMB     54       POPC     C215     CTL2    -0.180000       12.0110           0
      7182 MEMB     54       POPC     H15R     HAL2     0.900000E-01   1.00800           0
      7183 MEMB     54       POPC     H15S     HAL2     0.900000E-01   1.00800           0
      7184 MEMB     54       POPC     C216     CTL2    -0.180000       12.0110           0
      7185 MEMB     54       POPC     H16R     HAL2     0.900000E-01   1.00800           0
      7186 MEMB     54       POPC     H16S     HAL2     0.900000E-01   1.00800           0
      7187 MEMB     54       POPC     C217     CTL2    -0.180000       12.0110           0
      7188 MEMB     54       POPC     H17R     HAL2     0.900000E-01   1.00800           0
      7189 MEMB     54       POPC     H17S     HAL2     0.900000E-01   1.00800           0
      7190 MEMB     54       POPC     C218     CTL3    -0.270000       12.0110           0
      7191 MEMB     54       POPC     H18R     HAL3     0.900000E-01   1.00800           0
      7192 MEMB     54       POPC     H18S     HAL3     0.900000E-01   1.00800           0
      7193 MEMB     54       POPC     H18T     HAL3     0.900000E-01   1.00800           0
      7194 MEMB     54       POPC     C33      CTL2    -0.180000       12.0110           0
      7195 MEMB     54       POPC     H3X      HAL2     0.900000E-01   1.00800           0
      7196 MEMB     54       POPC     H3Y      HAL2     0.900000E-01   1.00800           0
      7197 MEMB     54       POPC     C34      CTL2    -0.180000       12.0110           0
      7198 MEMB     54       POPC     H4X      HAL2     0.900000E-01   1.00800           0
      7199 MEMB     54       POPC     H4Y      HAL2     0.900000E-01   1.00800           0
      7200 MEMB     54       POPC     C35      CTL2    -0.180000       12.0110           0
      7201 MEMB     54       POPC     H5X      HAL2     0.900000E-01   1.00800           0
      7202 MEMB     54       POPC     H5Y      HAL2     0.900000E-01   1.00800           0
      7203 MEMB     54       POPC     C36      CTL2    -0.180000       12.0110           0
      7204 MEMB     54       POPC     H6X      HAL2     0.900000E-01   1.00800           0
      7205 MEMB     54       POPC     H6Y      HAL2     0.900000E-01   1.00800           0
      7206 MEMB     54       POPC     C37      CTL2    -0.180000       12.0110           0
      7207 MEMB     54       POPC     H7X      HAL2     0.900000E-01   1.00800           0
      7208 MEMB     54       POPC     H7Y      HAL2     0.900000E-01   1.00800           0
      7209 MEMB     54       POPC     C38      CTL2    -0.180000       12.0110           0
      7210 MEMB     54       POPC     H8X      HAL2     0.900000E-01   1.00800           0
      7211 MEMB     54       POPC     H8Y      HAL2     0.900000E-01   1.00800           0
      7212 MEMB     54       POPC     C39      CTL2    -0.180000       12.0110           0
      7213 MEMB     54       POPC     H9X      HAL2     0.900000E-01   1.00800           0
      7214 MEMB     54       POPC     H9Y      HAL2     0.900000E-01   1.00800           0
      7215 MEMB     54       POPC     C310     CTL2    -0.180000       12.0110           0
      7216 MEMB     54       POPC     H10X     HAL2     0.900000E-01   1.00800           0
      7217 MEMB     54       POPC     H10Y     HAL2     0.900000E-01   1.00800           0
      7218 MEMB     54       POPC     C311     CTL2    -0.180000       12.0110           0
      7219 MEMB     54       POPC     H11X     HAL2     0.900000E-01   1.00800           0
      7220 MEMB     54       POPC     H11Y     HAL2     0.900000E-01   1.00800           0
      7221 MEMB     54       POPC     C312     CTL2    -0.180000       12.0110           0
      7222 MEMB     54       POPC     H12X     HAL2     0.900000E-01   1.00800           0
      7223 MEMB     54       POPC     H12Y     HAL2     0.900000E-01   1.00800           0
      7224 MEMB     54       POPC     C313     CTL2    -0.180000       12.0110           0
      7225 MEMB     54       POPC     H13X     HAL2     0.900000E-01   1.00800           0
      7226 MEMB     54       POPC     H13Y     HAL2     0.900000E-01   1.00800           0
      7227 MEMB     54       POPC     C314     CTL2    -0.180000       12.0110           0
      7228 MEMB     54       POPC     H14X     HAL2     0.900000E-01   1.00800           0
      7229 MEMB     54       POPC     H14Y     HAL2     0.900000E-01   1.00800           0
      7230 MEMB     54       POPC     C315     CTL2    -0.180000       12.0110           0
      7231 MEMB     54       POPC     H15X     HAL2     0.900000E-01   1.00800           0
      7232 MEMB     54       POPC     H15Y     HAL2     0.900000E-01   1.00800           0
      7233 MEMB     54       POPC     C316     CTL3    -0.270000       12.0110           0
      7234 MEMB     54       POPC     H16X     HAL3     0.900000E-01   1.00800           0
      7235 MEMB     54       POPC     H16Y     HAL3     0.900000E-01   1.00800           0
      7236 MEMB     54       POPC     H16Z     HAL3     0.900000E-01   1.00800           0
      7237 MEMB     55       POPC     N        NTL     -0.600000       14.0070           0
      7238 MEMB     55       POPC     C12      CTL2    -0.100000       12.0110           0
      7239 MEMB     55       POPC     H12A     HL       0.250000       1.00800           0
      7240 MEMB     55       POPC     H12B     HL       0.250000       1.00800           0
      7241 MEMB     55       POPC     C13      CTL5    -0.350000       12.0110           0
      7242 MEMB     55       POPC     H13A     HL       0.250000       1.00800           0
      7243 MEMB     55       POPC     H13B     HL       0.250000       1.00800           0
      7244 MEMB     55       POPC     H13C     HL       0.250000       1.00800           0
      7245 MEMB     55       POPC     C14      CTL5    -0.350000       12.0110           0
      7246 MEMB     55       POPC     H14A     HL       0.250000       1.00800           0
      7247 MEMB     55       POPC     H14B     HL       0.250000       1.00800           0
      7248 MEMB     55       POPC     H14C     HL       0.250000       1.00800           0
      7249 MEMB     55       POPC     C15      CTL5    -0.350000       12.0110           0
      7250 MEMB     55       POPC     H15A     HL       0.250000       1.00800           0
      7251 MEMB     55       POPC     H15B     HL       0.250000       1.00800           0
      7252 MEMB     55       POPC     H15C     HL       0.250000       1.00800           0
      7253 MEMB     55       POPC     C11      CTL2    -0.800000E-01   12.0110           0
      7254 MEMB     55       POPC     H11A     HAL2     0.900000E-01   1.00800           0
      7255 MEMB     55       POPC     H11B     HAL2     0.900000E-01   1.00800           0
      7256 MEMB     55       POPC     P        PL        1.50000       30.9740           0
      7257 MEMB     55       POPC     O13      O2L     -0.780000       15.9994           0
      7258 MEMB     55       POPC     O14      O2L     -0.780000       15.9994           0
      7259 MEMB     55       POPC     O12      OSLP    -0.570000       15.9994           0
      7260 MEMB     55       POPC     O11      OSLP    -0.570000       15.9994           0
      7261 MEMB     55       POPC     C1       CTL2    -0.800000E-01   12.0110           0
      7262 MEMB     55       POPC     HA       HAL2     0.900000E-01   1.00800           0
      7263 MEMB     55       POPC     HB       HAL2     0.900000E-01   1.00800           0
      7264 MEMB     55       POPC     C2       CTL1     0.170000       12.0110           0
      7265 MEMB     55       POPC     HS       HAL1     0.900000E-01   1.00800           0
      7266 MEMB     55       POPC     O21      OSL     -0.490000       15.9994           0
      7267 MEMB     55       POPC     C21      CL       0.900000       12.0110           0
      7268 MEMB     55       POPC     O22      OBL     -0.630000       15.9994           0
      7269 MEMB     55       POPC     C22      CTL2    -0.220000       12.0110           0
      7270 MEMB     55       POPC     H2R      HAL2     0.900000E-01   1.00800           0
      7271 MEMB     55       POPC     H2S      HAL2     0.900000E-01   1.00800           0
      7272 MEMB     55       POPC     C3       CTL2     0.800000E-01   12.0110           0
      7273 MEMB     55       POPC     HX       HAL2     0.900000E-01   1.00800           0
      7274 MEMB     55       POPC     HY       HAL2     0.900000E-01   1.00800           0
      7275 MEMB     55       POPC     O31      OSL     -0.490000       15.9994           0
      7276 MEMB     55       POPC     C31      CL       0.900000       12.0110           0
      7277 MEMB     55       POPC     O32      OBL     -0.630000       15.9994           0
      7278 MEMB     55       POPC     C32      CTL2    -0.220000       12.0110           0
      7279 MEMB     55       POPC     H2X      HAL2     0.900000E-01   1.00800           0
      7280 MEMB     55       POPC     H2Y      HAL2     0.900000E-01   1.00800           0
      7281 MEMB     55       POPC     C23      CTL2    -0.180000       12.0110           0
      7282 MEMB     55       POPC     H3R      HAL2     0.900000E-01   1.00800           0
      7283 MEMB     55       POPC     H3S      HAL2     0.900000E-01   1.00800           0
      7284 MEMB     55       POPC     C24      CTL2    -0.180000       12.0110           0
      7285 MEMB     55       POPC     H4R      HAL2     0.900000E-01   1.00800           0
      7286 MEMB     55       POPC     H4S      HAL2     0.900000E-01   1.00800           0
      7287 MEMB     55       POPC     C25      CTL2    -0.180000       12.0110           0
      7288 MEMB     55       POPC     H5R      HAL2     0.900000E-01   1.00800           0
      7289 MEMB     55       POPC     H5S      HAL2     0.900000E-01   1.00800           0
      7290 MEMB     55       POPC     C26      CTL2    -0.180000       12.0110           0
      7291 MEMB     55       POPC     H6R      HAL2     0.900000E-01   1.00800           0
      7292 MEMB     55       POPC     H6S      HAL2     0.900000E-01   1.00800           0
      7293 MEMB     55       POPC     C27      CTL2    -0.180000       12.0110           0
      7294 MEMB     55       POPC     H7R      HAL2     0.900000E-01   1.00800           0
      7295 MEMB     55       POPC     H7S      HAL2     0.900000E-01   1.00800           0
      7296 MEMB     55       POPC     C28      CTL2    -0.180000       12.0110           0
      7297 MEMB     55       POPC     H8R      HAL2     0.900000E-01   1.00800           0
      7298 MEMB     55       POPC     H8S      HAL2     0.900000E-01   1.00800           0
      7299 MEMB     55       POPC     C29      CEL1    -0.150000       12.0110           0
      7300 MEMB     55       POPC     H91      HEL1     0.150000       1.00800           0
      7301 MEMB     55       POPC     C210     CEL1    -0.150000       12.0110           0
      7302 MEMB     55       POPC     H101     HEL1     0.150000       1.00800           0
      7303 MEMB     55       POPC     C211     CTL2    -0.180000       12.0110           0
      7304 MEMB     55       POPC     H11R     HAL2     0.900000E-01   1.00800           0
      7305 MEMB     55       POPC     H11S     HAL2     0.900000E-01   1.00800           0
      7306 MEMB     55       POPC     C212     CTL2    -0.180000       12.0110           0
      7307 MEMB     55       POPC     H12R     HAL2     0.900000E-01   1.00800           0
      7308 MEMB     55       POPC     H12S     HAL2     0.900000E-01   1.00800           0
      7309 MEMB     55       POPC     C213     CTL2    -0.180000       12.0110           0
      7310 MEMB     55       POPC     H13R     HAL2     0.900000E-01   1.00800           0
      7311 MEMB     55       POPC     H13S     HAL2     0.900000E-01   1.00800           0
      7312 MEMB     55       POPC     C214     CTL2    -0.180000       12.0110           0
      7313 MEMB     55       POPC     H14R     HAL2     0.900000E-01   1.00800           0
      7314 MEMB     55       POPC     H14S     HAL2     0.900000E-01   1.00800           0
      7315 MEMB     55       POPC     C215     CTL2    -0.180000       12.0110           0
      7316 MEMB     55       POPC     H15R     HAL2     0.900000E-01   1.00800           0
      7317 MEMB     55       POPC     H15S     HAL2     0.900000E-01   1.00800           0
      7318 MEMB     55       POPC     C216     CTL2    -0.180000       12.0110           0
      7319 MEMB     55       POPC     H16R     HAL2     0.900000E-01   1.00800           0
      7320 MEMB     55       POPC     H16S     HAL2     0.900000E-01   1.00800           0
      7321 MEMB     55       POPC     C217     CTL2    -0.180000       12.0110           0
      7322 MEMB     55       POPC     H17R     HAL2     0.900000E-01   1.00800           0
      7323 MEMB     55       POPC     H17S     HAL2     0.900000E-01   1.00800           0
      7324 MEMB     55       POPC     C218     CTL3    -0.270000       12.0110           0
      7325 MEMB     55       POPC     H18R     HAL3     0.900000E-01   1.00800           0
      7326 MEMB     55       POPC     H18S     HAL3     0.900000E-01   1.00800           0
      7327 MEMB     55       POPC     H18T     HAL3     0.900000E-01   1.00800           0
      7328 MEMB     55       POPC     C33      CTL2    -0.180000       12.0110           0
      7329 MEMB     55       POPC     H3X      HAL2     0.900000E-01   1.00800           0
      7330 MEMB     55       POPC     H3Y      HAL2     0.900000E-01   1.00800           0
      7331 MEMB     55       POPC     C34      CTL2    -0.180000       12.0110           0
      7332 MEMB     55       POPC     H4X      HAL2     0.900000E-01   1.00800           0
      7333 MEMB     55       POPC     H4Y      HAL2     0.900000E-01   1.00800           0
      7334 MEMB     55       POPC     C35      CTL2    -0.180000       12.0110           0
      7335 MEMB     55       POPC     H5X      HAL2     0.900000E-01   1.00800           0
      7336 MEMB     55       POPC     H5Y      HAL2     0.900000E-01   1.00800           0
      7337 MEMB     55       POPC     C36      CTL2    -0.180000       12.0110           0
      7338 MEMB     55       POPC     H6X      HAL2     0.900000E-01   1.00800           0
      7339 MEMB     55       POPC     H6Y      HAL2     0.900000E-01   1.00800           0
      7340 MEMB     55       POPC     C37      CTL2    -0.180000       12.0110           0
      7341 MEMB     55       POPC     H7X      HAL2     0.900000E-01   1.00800           0
      7342 MEMB     55       POPC     H7Y      HAL2     0.900000E-01   1.00800           0
      7343 MEMB     55       POPC     C38      CTL2    -0.180000       12.0110           0
      7344 MEMB     55       POPC     H8X      HAL2     0.900000E-01   1.00800           0
      7345 MEMB     55       POPC     H8Y      HAL2     0.900000E-01   1.00800           0
      7346 MEMB     55       POPC     C39      CTL2    -0.180000       12.0110           0
      7347 MEMB     55       POPC     H9X      HAL2     0.900000E-01   1.00800           0
      7348 MEMB     55       POPC     H9Y      HAL2     0.900000E-01   1.00800           0
      7349 MEMB     55       POPC     C310     CTL2    -0.180000       12.0110           0
      7350 MEMB     55       POPC     H10X     HAL2     0.900000E-01   1.00800           0
      7351 MEMB     55       POPC     H10Y     HAL2     0.900000E-01   1.00800           0
      7352 MEMB     55       POPC     C311     CTL2    -0.180000       12.0110           0
      7353 MEMB     55       POPC     H11X     HAL2     0.900000E-01   1.00800           0
      7354 MEMB     55       POPC     H11Y     HAL2     0.900000E-01   1.00800           0
      7355 MEMB     55       POPC     C312     CTL2    -0.180000       12.0110           0
      7356 MEMB     55       POPC     H12X     HAL2     0.900000E-01   1.00800           0
      7357 MEMB     55       POPC     H12Y     HAL2     0.900000E-01   1.00800           0
      7358 MEMB     55       POPC     C313     CTL2    -0.180000       12.0110           0
      7359 MEMB     55       POPC     H13X     HAL2     0.900000E-01   1.00800           0
      7360 MEMB     55       POPC     H13Y     HAL2     0.900000E-01   1.00800           0
      7361 MEMB     55       POPC     C314     CTL2    -0.180000       12.0110           0
      7362 MEMB     55       POPC     H14X     HAL2     0.900000E-01   1.00800           0
      7363 MEMB     55       POPC     H14Y     HAL2     0.900000E-01   1.00800           0
      7364 MEMB     55       POPC     C315     CTL2    -0.180000       12.0110           0
      7365 MEMB     55       POPC     H15X     HAL2     0.900000E-01   1.00800           0
      7366 MEMB     55       POPC     H15Y     HAL2     0.900000E-01   1.00800           0
      7367 MEMB     55       POPC     C316     CTL3    -0.270000       12.0110           0
      7368 MEMB     55       POPC     H16X     HAL3     0.900000E-01   1.00800           0
      7369 MEMB     55       POPC     H16Y     HAL3     0.900000E-01   1.00800           0
      7370 MEMB     55       POPC     H16Z     HAL3     0.900000E-01   1.00800           0
      7371 MEMB     56       POPC     N        NTL     -0.600000       14.0070           0
      7372 MEMB     56       POPC     C12      CTL2    -0.100000       12.0110           0
      7373 MEMB     56       POPC     H12A     HL       0.250000       1.00800           0
      7374 MEMB     56       POPC     H12B     HL       0.250000       1.00800           0
      7375 MEMB     56       POPC     C13      CTL5    -0.350000       12.0110           0
      7376 MEMB     56       POPC     H13A     HL       0.250000       1.00800           0
      7377 MEMB     56       POPC     H13B     HL       0.250000       1.00800           0
      7378 MEMB     56       POPC     H13C     HL       0.250000       1.00800           0
      7379 MEMB     56       POPC     C14      CTL5    -0.350000       12.0110           0
      7380 MEMB     56       POPC     H14A     HL       0.250000       1.00800           0
      7381 MEMB     56       POPC     H14B     HL       0.250000       1.00800           0
      7382 MEMB     56       POPC     H14C     HL       0.250000       1.00800           0
      7383 MEMB     56       POPC     C15      CTL5    -0.350000       12.0110           0
      7384 MEMB     56       POPC     H15A     HL       0.250000       1.00800           0
      7385 MEMB     56       POPC     H15B     HL       0.250000       1.00800           0
      7386 MEMB     56       POPC     H15C     HL       0.250000       1.00800           0
      7387 MEMB     56       POPC     C11      CTL2    -0.800000E-01   12.0110           0
      7388 MEMB     56       POPC     H11A     HAL2     0.900000E-01   1.00800           0
      7389 MEMB     56       POPC     H11B     HAL2     0.900000E-01   1.00800           0
      7390 MEMB     56       POPC     P        PL        1.50000       30.9740           0
      7391 MEMB     56       POPC     O13      O2L     -0.780000       15.9994           0
      7392 MEMB     56       POPC     O14      O2L     -0.780000       15.9994           0
      7393 MEMB     56       POPC     O12      OSLP    -0.570000       15.9994           0
      7394 MEMB     56       POPC     O11      OSLP    -0.570000       15.9994           0
      7395 MEMB     56       POPC     C1       CTL2    -0.800000E-01   12.0110           0
      7396 MEMB     56       POPC     HA       HAL2     0.900000E-01   1.00800           0
      7397 MEMB     56       POPC     HB       HAL2     0.900000E-01   1.00800           0
      7398 MEMB     56       POPC     C2       CTL1     0.170000       12.0110           0
      7399 MEMB     56       POPC     HS       HAL1     0.900000E-01   1.00800           0
      7400 MEMB     56       POPC     O21      OSL     -0.490000       15.9994           0
      7401 MEMB     56       POPC     C21      CL       0.900000       12.0110           0
      7402 MEMB     56       POPC     O22      OBL     -0.630000       15.9994           0
      7403 MEMB     56       POPC     C22      CTL2    -0.220000       12.0110           0
      7404 MEMB     56       POPC     H2R      HAL2     0.900000E-01   1.00800           0
      7405 MEMB     56       POPC     H2S      HAL2     0.900000E-01   1.00800           0
      7406 MEMB     56       POPC     C3       CTL2     0.800000E-01   12.0110           0
      7407 MEMB     56       POPC     HX       HAL2     0.900000E-01   1.00800           0
      7408 MEMB     56       POPC     HY       HAL2     0.900000E-01   1.00800           0
      7409 MEMB     56       POPC     O31      OSL     -0.490000       15.9994           0
      7410 MEMB     56       POPC     C31      CL       0.900000       12.0110           0
      7411 MEMB     56       POPC     O32      OBL     -0.630000       15.9994           0
      7412 MEMB     56       POPC     C32      CTL2    -0.220000       12.0110           0
      7413 MEMB     56       POPC     H2X      HAL2     0.900000E-01   1.00800           0
      7414 MEMB     56       POPC     H2Y      HAL2     0.900000E-01   1.00800           0
      7415 MEMB     56       POPC     C23      CTL2    -0.180000       12.0110           0
      7416 MEMB     56       POPC     H3R      HAL2     0.900000E-01   1.00800           0
      7417 MEMB     56       POPC     H3S      HAL2     0.900000E-01   1.00800           0
      7418 MEMB     56       POPC     C24      CTL2    -0.180000       12.0110           0
      7419 MEMB     56       POPC     H4R      HAL2     0.900000E-01   1.00800           0
      7420 MEMB     56       POPC     H4S      HAL2     0.900000E-01   1.00800           0
      7421 MEMB     56       POPC     C25      CTL2    -0.180000       12.0110           0
      7422 MEMB     56       POPC     H5R      HAL2     0.900000E-01   1.00800           0
      7423 MEMB     56       POPC     H5S      HAL2     0.900000E-01   1.00800           0
      7424 MEMB     56       POPC     C26      CTL2    -0.180000       12.0110           0
      7425 MEMB     56       POPC     H6R      HAL2     0.900000E-01   1.00800           0
      7426 MEMB     56       POPC     H6S      HAL2     0.900000E-01   1.00800           0
      7427 MEMB     56       POPC     C27      CTL2    -0.180000       12.0110           0
      7428 MEMB     56       POPC     H7R      HAL2     0.900000E-01   1.00800           0
      7429 MEMB     56       POPC     H7S      HAL2     0.900000E-01   1.00800           0
      7430 MEMB     56       POPC     C28      CTL2    -0.180000       12.0110           0
      7431 MEMB     56       POPC     H8R      HAL2     0.900000E-01   1.00800           0
      7432 MEMB     56       POPC     H8S      HAL2     0.900000E-01   1.00800           0
      7433 MEMB     56       POPC     C29      CEL1    -0.150000       12.0110           0
      7434 MEMB     56       POPC     H91      HEL1     0.150000       1.00800           0
      7435 MEMB     56       POPC     C210     CEL1    -0.150000       12.0110           0
      7436 MEMB     56       POPC     H101     HEL1     0.150000       1.00800           0
      7437 MEMB     56       POPC     C211     CTL2    -0.180000       12.0110           0
      7438 MEMB     56       POPC     H11R     HAL2     0.900000E-01   1.00800           0
      7439 MEMB     56       POPC     H11S     HAL2     0.900000E-01   1.00800           0
      7440 MEMB     56       POPC     C212     CTL2    -0.180000       12.0110           0
      7441 MEMB     56       POPC     H12R     HAL2     0.900000E-01   1.00800           0
      7442 MEMB     56       POPC     H12S     HAL2     0.900000E-01   1.00800           0
      7443 MEMB     56       POPC     C213     CTL2    -0.180000       12.0110           0
      7444 MEMB     56       POPC     H13R     HAL2     0.900000E-01   1.00800           0
      7445 MEMB     56       POPC     H13S     HAL2     0.900000E-01   1.00800           0
      7446 MEMB     56       POPC     C214     CTL2    -0.180000       12.0110           0
      7447 MEMB     56       POPC     H14R     HAL2     0.900000E-01   1.00800           0
      7448 MEMB     56       POPC     H14S     HAL2     0.900000E-01   1.00800           0
      7449 MEMB     56       POPC     C215     CTL2    -0.180000       12.0110           0
      7450 MEMB     56       POPC     H15R     HAL2     0.900000E-01   1.00800           0
      7451 MEMB     56       POPC     H15S     HAL2     0.900000E-01   1.00800           0
      7452 MEMB     56       POPC     C216     CTL2    -0.180000       12.0110           0
      7453 MEMB     56       POPC     H16R     HAL2     0.900000E-01   1.00800           0
      7454 MEMB     56       POPC     H16S     HAL2     0.900000E-01   1.00800           0
      7455 MEMB     56       POPC     C217     CTL2    -0.180000       12.0110           0
      7456 MEMB     56       POPC     H17R     HAL2     0.900000E-01   1.00800           0
      7457 MEMB     56       POPC     H17S     HAL2     0.900000E-01   1.00800           0
      7458 MEMB     56       POPC     C218     CTL3    -0.270000       12.0110           0
      7459 MEMB     56       POPC     H18R     HAL3     0.900000E-01   1.00800           0
      7460 MEMB     56       POPC     H18S     HAL3     0.900000E-01   1.00800           0
      7461 MEMB     56       POPC     H18T     HAL3     0.900000E-01   1.00800           0
      7462 MEMB     56       POPC     C33      CTL2    -0.180000       12.0110           0
      7463 MEMB     56       POPC     H3X      HAL2     0.900000E-01   1.00800           0
      7464 MEMB     56       POPC     H3Y      HAL2     0.900000E-01   1.00800           0
      7465 MEMB     56       POPC     C34      CTL2    -0.180000       12.0110           0
      7466 MEMB     56       POPC     H4X      HAL2     0.900000E-01   1.00800           0
      7467 MEMB     56       POPC     H4Y      HAL2     0.900000E-01   1.00800           0
      7468 MEMB     56       POPC     C35      CTL2    -0.180000       12.0110           0
      7469 MEMB     56       POPC     H5X      HAL2     0.900000E-01   1.00800           0
      7470 MEMB     56       POPC     H5Y      HAL2     0.900000E-01   1.00800           0
      7471 MEMB     56       POPC     C36      CTL2    -0.180000       12.0110           0
      7472 MEMB     56       POPC     H6X      HAL2     0.900000E-01   1.00800           0
      7473 MEMB     56       POPC     H6Y      HAL2     0.900000E-01   1.00800           0
      7474 MEMB     56       POPC     C37      CTL2    -0.180000       12.0110           0
      7475 MEMB     56       POPC     H7X      HAL2     0.900000E-01   1.00800           0
      7476 MEMB     56       POPC     H7Y      HAL2     0.900000E-01   1.00800           0
      7477 MEMB     56       POPC     C38      CTL2    -0.180000       12.0110           0
      7478 MEMB     56       POPC     H8X      HAL2     0.900000E-01   1.00800           0
      7479 MEMB     56       POPC     H8Y      HAL2     0.900000E-01   1.00800           0
      7480 MEMB     56       POPC     C39      CTL2    -0.180000       12.0110           0
      7481 MEMB     56       POPC     H9X      HAL2     0.900000E-01   1.00800           0
      7482 MEMB     56       POPC     H9Y      HAL2     0.900000E-01   1.00800           0
      7483 MEMB     56       POPC     C310     CTL2    -0.180000       12.0110           0
      7484 MEMB     56       POPC     H10X     HAL2     0.900000E-01   1.00800           0
      7485 MEMB     56       POPC     H10Y     HAL2     0.900000E-01   1.00800           0
      7486 MEMB     56       POPC     C311     CTL2    -0.180000       12.0110           0
      7487 MEMB     56       POPC     H11X     HAL2     0.900000E-01   1.00800           0
      7488 MEMB     56       POPC     H11Y     HAL2     0.900000E-01   1.00800           0
      7489 MEMB     56       POPC     C312     CTL2    -0.180000       12.0110           0
      7490 MEMB     56       POPC     H12X     HAL2     0.900000E-01   1.00800           0
      7491 MEMB     56       POPC     H12Y     HAL2     0.900000E-01   1.00800           0
      7492 MEMB     56       POPC     C313     CTL2    -0.180000       12.0110           0
      7493 MEMB     56       POPC     H13X     HAL2     0.900000E-01   1.00800           0
      7494 MEMB     56       POPC     H13Y     HAL2     0.900000E-01   1.00800           0
      7495 MEMB     56       POPC     C314     CTL2    -0.180000       12.0110           0
      7496 MEMB     56       POPC     H14X     HAL2     0.900000E-01   1.00800           0
      7497 MEMB     56       POPC     H14Y     HAL2     0.900000E-01   1.00800           0
      7498 MEMB     56       POPC     C315     CTL2    -0.180000       12.0110           0
      7499 MEMB     56       POPC     H15X     HAL2     0.900000E-01   1.00800           0
      7500 MEMB     56       POPC     H15Y     HAL2     0.900000E-01   1.00800           0
      7501 MEMB     56       POPC     C316     CTL3    -0.270000       12.0110           0
      7502 MEMB     56       POPC     H16X     HAL3     0.900000E-01   1.00800           0
      7503 MEMB     56       POPC     H16Y     HAL3     0.900000E-01   1.00800           0
      7504 MEMB     56       POPC     H16Z     HAL3     0.900000E-01   1.00800           0
      7505 MEMB     57       POPC     N        NTL     -0.600000       14.0070           0
      7506 MEMB     57       POPC     C12      CTL2    -0.100000       12.0110           0
      7507 MEMB     57       POPC     H12A     HL       0.250000       1.00800           0
      7508 MEMB     57       POPC     H12B     HL       0.250000       1.00800           0
      7509 MEMB     57       POPC     C13      CTL5    -0.350000       12.0110           0
      7510 MEMB     57       POPC     H13A     HL       0.250000       1.00800           0
      7511 MEMB     57       POPC     H13B     HL       0.250000       1.00800           0
      7512 MEMB     57       POPC     H13C     HL       0.250000       1.00800           0
      7513 MEMB     57       POPC     C14      CTL5    -0.350000       12.0110           0
      7514 MEMB     57       POPC     H14A     HL       0.250000       1.00800           0
      7515 MEMB     57       POPC     H14B     HL       0.250000       1.00800           0
      7516 MEMB     57       POPC     H14C     HL       0.250000       1.00800           0
      7517 MEMB     57       POPC     C15      CTL5    -0.350000       12.0110           0
      7518 MEMB     57       POPC     H15A     HL       0.250000       1.00800           0
      7519 MEMB     57       POPC     H15B     HL       0.250000       1.00800           0
      7520 MEMB     57       POPC     H15C     HL       0.250000       1.00800           0
      7521 MEMB     57       POPC     C11      CTL2    -0.800000E-01   12.0110           0
      7522 MEMB     57       POPC     H11A     HAL2     0.900000E-01   1.00800           0
      7523 MEMB     57       POPC     H11B     HAL2     0.900000E-01   1.00800           0
      7524 MEMB     57       POPC     P        PL        1.50000       30.9740           0
      7525 MEMB     57       POPC     O13      O2L     -0.780000       15.9994           0
      7526 MEMB     57       POPC     O14      O2L     -0.780000       15.9994           0
      7527 MEMB     57       POPC     O12      OSLP    -0.570000       15.9994           0
      7528 MEMB     57       POPC     O11      OSLP    -0.570000       15.9994           0
      7529 MEMB     57       POPC     C1       CTL2    -0.800000E-01   12.0110           0
      7530 MEMB     57       POPC     HA       HAL2     0.900000E-01   1.00800           0
      7531 MEMB     57       POPC     HB       HAL2     0.900000E-01   1.00800           0
      7532 MEMB     57       POPC     C2       CTL1     0.170000       12.0110           0
      7533 MEMB     57       POPC     HS       HAL1     0.900000E-01   1.00800           0
      7534 MEMB     57       POPC     O21      OSL     -0.490000       15.9994           0
      7535 MEMB     57       POPC     C21      CL       0.900000       12.0110           0
      7536 MEMB     57       POPC     O22      OBL     -0.630000       15.9994           0
      7537 MEMB     57       POPC     C22      CTL2    -0.220000       12.0110           0
      7538 MEMB     57       POPC     H2R      HAL2     0.900000E-01   1.00800           0
      7539 MEMB     57       POPC     H2S      HAL2     0.900000E-01   1.00800           0
      7540 MEMB     57       POPC     C3       CTL2     0.800000E-01   12.0110           0
      7541 MEMB     57       POPC     HX       HAL2     0.900000E-01   1.00800           0
      7542 MEMB     57       POPC     HY       HAL2     0.900000E-01   1.00800           0
      7543 MEMB     57       POPC     O31      OSL     -0.490000       15.9994           0
      7544 MEMB     57       POPC     C31      CL       0.900000       12.0110           0
      7545 MEMB     57       POPC     O32      OBL     -0.630000       15.9994           0
      7546 MEMB     57       POPC     C32      CTL2    -0.220000       12.0110           0
      7547 MEMB     57       POPC     H2X      HAL2     0.900000E-01   1.00800           0
      7548 MEMB     57       POPC     H2Y      HAL2     0.900000E-01   1.00800           0
      7549 MEMB     57       POPC     C23      CTL2    -0.180000       12.0110           0
      7550 MEMB     57       POPC     H3R      HAL2     0.900000E-01   1.00800           0
      7551 MEMB     57       POPC     H3S      HAL2     0.900000E-01   1.00800           0
      7552 MEMB     57       POPC     C24      CTL2    -0.180000       12.0110           0
      7553 MEMB     57       POPC     H4R      HAL2     0.900000E-01   1.00800           0
      7554 MEMB     57       POPC     H4S      HAL2     0.900000E-01   1.00800           0
      7555 MEMB     57       POPC     C25      CTL2    -0.180000       12.0110           0
      7556 MEMB     57       POPC     H5R      HAL2     0.900000E-01   1.00800           0
      7557 MEMB     57       POPC     H5S      HAL2     0.900000E-01   1.00800           0
      7558 MEMB     57       POPC     C26      CTL2    -0.180000       12.0110           0
      7559 MEMB     57       POPC     H6R      HAL2     0.900000E-01   1.00800           0
      7560 MEMB     57       POPC     H6S      HAL2     0.900000E-01   1.00800           0
      7561 MEMB     57       POPC     C27      CTL2    -0.180000       12.0110           0
      7562 MEMB     57       POPC     H7R      HAL2     0.900000E-01   1.00800           0
      7563 MEMB     57       POPC     H7S      HAL2     0.900000E-01   1.00800           0
      7564 MEMB     57       POPC     C28      CTL2    -0.180000       12.0110           0
      7565 MEMB     57       POPC     H8R      HAL2     0.900000E-01   1.00800           0
      7566 MEMB     57       POPC     H8S      HAL2     0.900000E-01   1.00800           0
      7567 MEMB     57       POPC     C29      CEL1    -0.150000       12.0110           0
      7568 MEMB     57       POPC     H91      HEL1     0.150000       1.00800           0
      7569 MEMB     57       POPC     C210     CEL1    -0.150000       12.0110           0
      7570 MEMB     57       POPC     H101     HEL1     0.150000       1.00800           0
      7571 MEMB     57       POPC     C211     CTL2    -0.180000       12.0110           0
      7572 MEMB     57       POPC     H11R     HAL2     0.900000E-01   1.00800           0
      7573 MEMB     57       POPC     H11S     HAL2     0.900000E-01   1.00800           0
      7574 MEMB     57       POPC     C212     CTL2    -0.180000       12.0110           0
      7575 MEMB     57       POPC     H12R     HAL2     0.900000E-01   1.00800           0
      7576 MEMB     57       POPC     H12S     HAL2     0.900000E-01   1.00800           0
      7577 MEMB     57       POPC     C213     CTL2    -0.180000       12.0110           0
      7578 MEMB     57       POPC     H13R     HAL2     0.900000E-01   1.00800           0
      7579 MEMB     57       POPC     H13S     HAL2     0.900000E-01   1.00800           0
      7580 MEMB     57       POPC     C214     CTL2    -0.180000       12.0110           0
      7581 MEMB     57       POPC     H14R     HAL2     0.900000E-01   1.00800           0
      7582 MEMB     57       POPC     H14S     HAL2     0.900000E-01   1.00800           0
      7583 MEMB     57       POPC     C215     CTL2    -0.180000       12.0110           0
      7584 MEMB     57       POPC     H15R     HAL2     0.900000E-01   1.00800           0
      7585 MEMB     57       POPC     H15S     HAL2     0.900000E-01   1.00800           0
      7586 MEMB     57       POPC     C216     CTL2    -0.180000       12.0110           0
      7587 MEMB     57       POPC     H16R     HAL2     0.900000E-01   1.00800           0
      7588 MEMB     57       POPC     H16S     HAL2     0.900000E-01   1.00800           0
      7589 MEMB     57       POPC     C217     CTL2    -0.180000       12.0110           0
      7590 MEMB     57       POPC     H17R     HAL2     0.900000E-01   1.00800           0
      7591 MEMB     57       POPC     H17S     HAL2     0.900000E-01   1.00800           0
      7592 MEMB     57       POPC     C218     CTL3    -0.270000       12.0110           0
      7593 MEMB     57       POPC     H18R     HAL3     0.900000E-01   1.00800           0
      7594 MEMB     57       POPC     H18S     HAL3     0.900000E-01   1.00800           0
      7595 MEMB     57       POPC     H18T     HAL3     0.900000E-01   1.00800           0
      7596 MEMB     57       POPC     C33      CTL2    -0.180000       12.0110           0
      7597 MEMB     57       POPC     H3X      HAL2     0.900000E-01   1.00800           0
      7598 MEMB     57       POPC     H3Y      HAL2     0.900000E-01   1.00800           0
      7599 MEMB     57       POPC     C34      CTL2    -0.180000       12.0110           0
      7600 MEMB     57       POPC     H4X      HAL2     0.900000E-01   1.00800           0
      7601 MEMB     57       POPC     H4Y      HAL2     0.900000E-01   1.00800           0
      7602 MEMB     57       POPC     C35      CTL2    -0.180000       12.0110           0
      7603 MEMB     57       POPC     H5X      HAL2     0.900000E-01   1.00800           0
      7604 MEMB     57       POPC     H5Y      HAL2     0.900000E-01   1.00800           0
      7605 MEMB     57       POPC     C36      CTL2    -0.180000       12.0110           0
      7606 MEMB     57       POPC     H6X      HAL2     0.900000E-01   1.00800           0
      7607 MEMB     57       POPC     H6Y      HAL2     0.900000E-01   1.00800           0
      7608 MEMB     57       POPC     C37      CTL2    -0.180000       12.0110           0
      7609 MEMB     57       POPC     H7X      HAL2     0.900000E-01   1.00800           0
      7610 MEMB     57       POPC     H7Y      HAL2     0.900000E-01   1.00800           0
      7611 MEMB     57       POPC     C38      CTL2    -0.180000       12.0110           0
      7612 MEMB     57       POPC     H8X      HAL2     0.900000E-01   1.00800           0
      7613 MEMB     57       POPC     H8Y      HAL2     0.900000E-01   1.00800           0
      7614 MEMB     57       POPC     C39      CTL2    -0.180000       12.0110           0
      7615 MEMB     57       POPC     H9X      HAL2     0.900000E-01   1.00800           0
      7616 MEMB     57       POPC     H9Y      HAL2     0.900000E-01   1.00800           0
      7617 MEMB     57       POPC     C310     CTL2    -0.180000       12.0110           0
      7618 MEMB     57       POPC     H10X     HAL2     0.900000E-01   1.00800           0
      7619 MEMB     57       POPC     H10Y     HAL2     0.900000E-01   1.00800           0
      7620 MEMB     57       POPC     C311     CTL2    -0.180000       12.0110           0
      7621 MEMB     57       POPC     H11X     HAL2     0.900000E-01   1.00800           0
      7622 MEMB     57       POPC     H11Y     HAL2     0.900000E-01   1.00800           0
      7623 MEMB     57       POPC     C312     CTL2    -0.180000       12.0110           0
      7624 MEMB     57       POPC     H12X     HAL2     0.900000E-01   1.00800           0
      7625 MEMB     57       POPC     H12Y     HAL2     0.900000E-01   1.00800           0
      7626 MEMB     57       POPC     C313     CTL2    -0.180000       12.0110           0
      7627 MEMB     57       POPC     H13X     HAL2     0.900000E-01   1.00800           0
      7628 MEMB     57       POPC     H13Y     HAL2     0.900000E-01   1.00800           0
      7629 MEMB     57       POPC     C314     CTL2    -0.180000       12.0110           0
      7630 MEMB     57       POPC     H14X     HAL2     0.900000E-01   1.00800           0
      7631 MEMB     57       POPC     H14Y     HAL2     0.900000E-01   1.00800           0
      7632 MEMB     57       POPC     C315     CTL2    -0.180000       12.0110           0
      7633 MEMB     57       POPC     H15X     HAL2     0.900000E-01   1.00800           0
      7634 MEMB     57       POPC     H15Y     HAL2     0.900000E-01   1.00800           0
      7635 MEMB     57       POPC     C316     CTL3    -0.270000       12.0110           0
      7636 MEMB     57       POPC     H16X     HAL3     0.900000E-01   1.00800           0
      7637 MEMB     57       POPC     H16Y     HAL3     0.900000E-01   1.00800           0
      7638 MEMB     57       POPC     H16Z     HAL3     0.900000E-01   1.00800           0
      7639 MEMB     58       POPC     N        NTL     -0.600000       14.0070           0
      7640 MEMB     58       POPC     C12      CTL2    -0.100000       12.0110           0
      7641 MEMB     58       POPC     H12A     HL       0.250000       1.00800           0
      7642 MEMB     58       POPC     H12B     HL       0.250000       1.00800           0
      7643 MEMB     58       POPC     C13      CTL5    -0.350000       12.0110           0
      7644 MEMB     58       POPC     H13A     HL       0.250000       1.00800           0
      7645 MEMB     58       POPC     H13B     HL       0.250000       1.00800           0
      7646 MEMB     58       POPC     H13C     HL       0.250000       1.00800           0
      7647 MEMB     58       POPC     C14      CTL5    -0.350000       12.0110           0
      7648 MEMB     58       POPC     H14A     HL       0.250000       1.00800           0
      7649 MEMB     58       POPC     H14B     HL       0.250000       1.00800           0
      7650 MEMB     58       POPC     H14C     HL       0.250000       1.00800           0
      7651 MEMB     58       POPC     C15      CTL5    -0.350000       12.0110           0
      7652 MEMB     58       POPC     H15A     HL       0.250000       1.00800           0
      7653 MEMB     58       POPC     H15B     HL       0.250000       1.00800           0
      7654 MEMB     58       POPC     H15C     HL       0.250000       1.00800           0
      7655 MEMB     58       POPC     C11      CTL2    -0.800000E-01   12.0110           0
      7656 MEMB     58       POPC     H11A     HAL2     0.900000E-01   1.00800           0
      7657 MEMB     58       POPC     H11B     HAL2     0.900000E-01   1.00800           0
      7658 MEMB     58       POPC     P        PL        1.50000       30.9740           0
      7659 MEMB     58       POPC     O13      O2L     -0.780000       15.9994           0
      7660 MEMB     58       POPC     O14      O2L     -0.780000       15.9994           0
      7661 MEMB     58       POPC     O12      OSLP    -0.570000       15.9994           0
      7662 MEMB     58       POPC     O11      OSLP    -0.570000       15.9994           0
      7663 MEMB     58       POPC     C1       CTL2    -0.800000E-01   12.0110           0
      7664 MEMB     58       POPC     HA       HAL2     0.900000E-01   1.00800           0
      7665 MEMB     58       POPC     HB       HAL2     0.900000E-01   1.00800           0
      7666 MEMB     58       POPC     C2       CTL1     0.170000       12.0110           0
      7667 MEMB     58       POPC     HS       HAL1     0.900000E-01   1.00800           0
      7668 MEMB     58       POPC     O21      OSL     -0.490000       15.9994           0
      7669 MEMB     58       POPC     C21      CL       0.900000       12.0110           0
      7670 MEMB     58       POPC     O22      OBL     -0.630000       15.9994           0
      7671 MEMB     58       POPC     C22      CTL2    -0.220000       12.0110           0
      7672 MEMB     58       POPC     H2R      HAL2     0.900000E-01   1.00800           0
      7673 MEMB     58       POPC     H2S      HAL2     0.900000E-01   1.00800           0
      7674 MEMB     58       POPC     C3       CTL2     0.800000E-01   12.0110           0
      7675 MEMB     58       POPC     HX       HAL2     0.900000E-01   1.00800           0
      7676 MEMB     58       POPC     HY       HAL2     0.900000E-01   1.00800           0
      7677 MEMB     58       POPC     O31      OSL     -0.490000       15.9994           0
      7678 MEMB     58       POPC     C31      CL       0.900000       12.0110           0
      7679 MEMB     58       POPC     O32      OBL     -0.630000       15.9994           0
      7680 MEMB     58       POPC     C32      CTL2    -0.220000       12.0110           0
      7681 MEMB     58       POPC     H2X      HAL2     0.900000E-01   1.00800           0
      7682 MEMB     58       POPC     H2Y      HAL2     0.900000E-01   1.00800           0
      7683 MEMB     58       POPC     C23      CTL2    -0.180000       12.0110           0
      7684 MEMB     58       POPC     H3R      HAL2     0.900000E-01   1.00800           0
      7685 MEMB     58       POPC     H3S      HAL2     0.900000E-01   1.00800           0
      7686 MEMB     58       POPC     C24      CTL2    -0.180000       12.0110           0
      7687 MEMB     58       POPC     H4R      HAL2     0.900000E-01   1.00800           0
      7688 MEMB     58       POPC     H4S      HAL2     0.900000E-01   1.00800           0
      7689 MEMB     58       POPC     C25      CTL2    -0.180000       12.0110           0
      7690 MEMB     58       POPC     H5R      HAL2     0.900000E-01   1.00800           0
      7691 MEMB     58       POPC     H5S      HAL2     0.900000E-01   1.00800           0
      7692 MEMB     58       POPC     C26      CTL2    -0.180000       12.0110           0
      7693 MEMB     58       POPC     H6R      HAL2     0.900000E-01   1.00800           0
      7694 MEMB     58       POPC     H6S      HAL2     0.900000E-01   1.00800           0
      7695 MEMB     58       POPC     C27      CTL2    -0.180000       12.0110           0
      7696 MEMB     58       POPC     H7R      HAL2     0.900000E-01   1.00800           0
      7697 MEMB     58       POPC     H7S      HAL2     0.900000E-01   1.00800           0
      7698 MEMB     58       POPC     C28      CTL2    -0.180000       12.0110           0
      7699 MEMB     58       POPC     H8R      HAL2     0.900000E-01   1.00800           0
      7700 MEMB     58       POPC     H8S      HAL2     0.900000E-01   1.00800           0
      7701 MEMB     58       POPC     C29      CEL1    -0.150000       12.0110           0
      7702 MEMB     58       POPC     H91      HEL1     0.150000       1.00800           0
      7703 MEMB     58       POPC     C210     CEL1    -0.150000       12.0110           0
      7704 MEMB     58       POPC     H101     HEL1     0.150000       1.00800           0
      7705 MEMB     58       POPC     C211     CTL2    -0.180000       12.0110           0
      7706 MEMB     58       POPC     H11R     HAL2     0.900000E-01   1.00800           0
      7707 MEMB     58       POPC     H11S     HAL2     0.900000E-01   1.00800           0
      7708 MEMB     58       POPC     C212     CTL2    -0.180000       12.0110           0
      7709 MEMB     58       POPC     H12R     HAL2     0.900000E-01   1.00800           0
      7710 MEMB     58       POPC     H12S     HAL2     0.900000E-01   1.00800           0
      7711 MEMB     58       POPC     C213     CTL2    -0.180000       12.0110           0
      7712 MEMB     58       POPC     H13R     HAL2     0.900000E-01   1.00800           0
      7713 MEMB     58       POPC     H13S     HAL2     0.900000E-01   1.00800           0
      7714 MEMB     58       POPC     C214     CTL2    -0.180000       12.0110           0
      7715 MEMB     58       POPC     H14R     HAL2     0.900000E-01   1.00800           0
      7716 MEMB     58       POPC     H14S     HAL2     0.900000E-01   1.00800           0
      7717 MEMB     58       POPC     C215     CTL2    -0.180000       12.0110           0
      7718 MEMB     58       POPC     H15R     HAL2     0.900000E-01   1.00800           0
      7719 MEMB     58       POPC     H15S     HAL2     0.900000E-01   1.00800           0
      7720 MEMB     58       POPC     C216     CTL2    -0.180000       12.0110           0
      7721 MEMB     58       POPC     H16R     HAL2     0.900000E-01   1.00800           0
      7722 MEMB     58       POPC     H16S     HAL2     0.900000E-01   1.00800           0
      7723 MEMB     58       POPC     C217     CTL2    -0.180000       12.0110           0
      7724 MEMB     58       POPC     H17R     HAL2     0.900000E-01   1.00800           0
      7725 MEMB     58       POPC     H17S     HAL2     0.900000E-01   1.00800           0
      7726 MEMB     58       POPC     C218     CTL3    -0.270000       12.0110           0
      7727 MEMB     58       POPC     H18R     HAL3     0.900000E-01   1.00800           0
      7728 MEMB     58       POPC     H18S     HAL3     0.900000E-01   1.00800           0
      7729 MEMB     58       POPC     H18T     HAL3     0.900000E-01   1.00800           0
      7730 MEMB     58       POPC     C33      CTL2    -0.180000       12.0110           0
      7731 MEMB     58       POPC     H3X      HAL2     0.900000E-01   1.00800           0
      7732 MEMB     58       POPC     H3Y      HAL2     0.900000E-01   1.00800           0
      7733 MEMB     58       POPC     C34      CTL2    -0.180000       12.0110           0
      7734 MEMB     58       POPC     H4X      HAL2     0.900000E-01   1.00800           0
      7735 MEMB     58       POPC     H4Y      HAL2     0.900000E-01   1.00800           0
      7736 MEMB     58       POPC     C35      CTL2    -0.180000       12.0110           0
      7737 MEMB     58       POPC     H5X      HAL2     0.900000E-01   1.00800           0
      7738 MEMB     58       POPC     H5Y      HAL2     0.900000E-01   1.00800           0
      7739 MEMB     58       POPC     C36      CTL2    -0.180000       12.0110           0
      7740 MEMB     58       POPC     H6X      HAL2     0.900000E-01   1.00800           0
      7741 MEMB     58       POPC     H6Y      HAL2     0.900000E-01   1.00800           0
      7742 MEMB     58       POPC     C37      CTL2    -0.180000       12.0110           0
      7743 MEMB     58       POPC     H7X      HAL2     0.900000E-01   1.00800           0
      7744 MEMB     58       POPC     H7Y      HAL2     0.900000E-01   1.00800           0
      7745 MEMB     58       POPC     C38      CTL2    -0.180000       12.0110           0
      7746 MEMB     58       POPC     H8X      HAL2     0.900000E-01   1.00800           0
      7747 MEMB     58       POPC     H8Y      HAL2     0.900000E-01   1.00800           0
      7748 MEMB     58       POPC     C39      CTL2    -0.180000       12.0110           0
      7749 MEMB     58       POPC     H9X      HAL2     0.900000E-01   1.00800           0
      7750 MEMB     58       POPC     H9Y      HAL2     0.900000E-01   1.00800           0
      7751 MEMB     58       POPC     C310     CTL2    -0.180000       12.0110           0
      7752 MEMB     58       POPC     H10X     HAL2     0.900000E-01   1.00800           0
      7753 MEMB     58       POPC     H10Y     HAL2     0.900000E-01   1.00800           0
      7754 MEMB     58       POPC     C311     CTL2    -0.180000       12.0110           0
      7755 MEMB     58       POPC     H11X     HAL2     0.900000E-01   1.00800           0
      7756 MEMB     58       POPC     H11Y     HAL2     0.900000E-01   1.00800           0
      7757 MEMB     58       POPC     C312     CTL2    -0.180000       12.0110           0
      7758 MEMB     58       POPC     H12X     HAL2     0.900000E-01   1.00800           0
      7759 MEMB     58       POPC     H12Y     HAL2     0.900000E-01   1.00800           0
      7760 MEMB     58       POPC     C313     CTL2    -0.180000       12.0110           0
      7761 MEMB     58       POPC     H13X     HAL2     0.900000E-01   1.00800           0
      7762 MEMB     58       POPC     H13Y     HAL2     0.900000E-01   1.00800           0
      7763 MEMB     58       POPC     C314     CTL2    -0.180000       12.0110           0
      7764 MEMB     58       POPC     H14X     HAL2     0.900000E-01   1.00800           0
      7765 MEMB     58       POPC     H14Y     HAL2     0.900000E-01   1.00800           0
      7766 MEMB     58       POPC     C315     CTL2    -0.180000       12.0110           0
      7767 MEMB     58       POPC     H15X     HAL2     0.900000E-01   1.00800           0
      7768 MEMB     58       POPC     H15Y     HAL2     0.900000E-01   1.00800           0
      7769 MEMB     58       POPC     C316     CTL3    -0.270000       12.0110           0
      7770 MEMB     58       POPC     H16X     HAL3     0.900000E-01   1.00800           0
      7771 MEMB     58       POPC     H16Y     HAL3     0.900000E-01   1.00800           0
      7772 MEMB     58       POPC     H16Z     HAL3     0.900000E-01   1.00800           0
      7773 MEMB     59       POPC     N        NTL     -0.600000       14.0070           0
      7774 MEMB     59       POPC     C12      CTL2    -0.100000       12.0110           0
      7775 MEMB     59       POPC     H12A     HL       0.250000       1.00800           0
      7776 MEMB     59       POPC     H12B     HL       0.250000       1.00800           0
      7777 MEMB     59       POPC     C13      CTL5    -0.350000       12.0110           0
      7778 MEMB     59       POPC     H13A     HL       0.250000       1.00800           0
      7779 MEMB     59       POPC     H13B     HL       0.250000       1.00800           0
      7780 MEMB     59       POPC     H13C     HL       0.250000       1.00800           0
      7781 MEMB     59       POPC     C14      CTL5    -0.350000       12.0110           0
      7782 MEMB     59       POPC     H14A     HL       0.250000       1.00800           0
      7783 MEMB     59       POPC     H14B     HL       0.250000       1.00800           0
      7784 MEMB     59       POPC     H14C     HL       0.250000       1.00800           0
      7785 MEMB     59       POPC     C15      CTL5    -0.350000       12.0110           0
      7786 MEMB     59       POPC     H15A     HL       0.250000       1.00800           0
      7787 MEMB     59       POPC     H15B     HL       0.250000       1.00800           0
      7788 MEMB     59       POPC     H15C     HL       0.250000       1.00800           0
      7789 MEMB     59       POPC     C11      CTL2    -0.800000E-01   12.0110           0
      7790 MEMB     59       POPC     H11A     HAL2     0.900000E-01   1.00800           0
      7791 MEMB     59       POPC     H11B     HAL2     0.900000E-01   1.00800           0
      7792 MEMB     59       POPC     P        PL        1.50000       30.9740           0
      7793 MEMB     59       POPC     O13      O2L     -0.780000       15.9994           0
      7794 MEMB     59       POPC     O14      O2L     -0.780000       15.9994           0
      7795 MEMB     59       POPC     O12      OSLP    -0.570000       15.9994           0
      7796 MEMB     59       POPC     O11      OSLP    -0.570000       15.9994           0
      7797 MEMB     59       POPC     C1       CTL2    -0.800000E-01   12.0110           0
      7798 MEMB     59       POPC     HA       HAL2     0.900000E-01   1.00800           0
      7799 MEMB     59       POPC     HB       HAL2     0.900000E-01   1.00800           0
      7800 MEMB     59       POPC     C2       CTL1     0.170000       12.0110           0
      7801 MEMB     59       POPC     HS       HAL1     0.900000E-01   1.00800           0
      7802 MEMB     59       POPC     O21      OSL     -0.490000       15.9994           0
      7803 MEMB     59       POPC     C21      CL       0.900000       12.0110           0
      7804 MEMB     59       POPC     O22      OBL     -0.630000       15.9994           0
      7805 MEMB     59       POPC     C22      CTL2    -0.220000       12.0110           0
      7806 MEMB     59       POPC     H2R      HAL2     0.900000E-01   1.00800           0
      7807 MEMB     59       POPC     H2S      HAL2     0.900000E-01   1.00800           0
      7808 MEMB     59       POPC     C3       CTL2     0.800000E-01   12.0110           0
      7809 MEMB     59       POPC     HX       HAL2     0.900000E-01   1.00800           0
      7810 MEMB     59       POPC     HY       HAL2     0.900000E-01   1.00800           0
      7811 MEMB     59       POPC     O31      OSL     -0.490000       15.9994           0
      7812 MEMB     59       POPC     C31      CL       0.900000       12.0110           0
      7813 MEMB     59       POPC     O32      OBL     -0.630000       15.9994           0
      7814 MEMB     59       POPC     C32      CTL2    -0.220000       12.0110           0
      7815 MEMB     59       POPC     H2X      HAL2     0.900000E-01   1.00800           0
      7816 MEMB     59       POPC     H2Y      HAL2     0.900000E-01   1.00800           0
      7817 MEMB     59       POPC     C23      CTL2    -0.180000       12.0110           0
      7818 MEMB     59       POPC     H3R      HAL2     0.900000E-01   1.00800           0
      7819 MEMB     59       POPC     H3S      HAL2     0.900000E-01   1.00800           0
      7820 MEMB     59       POPC     C24      CTL2    -0.180000       12.0110           0
      7821 MEMB     59       POPC     H4R      HAL2     0.900000E-01   1.00800           0
      7822 MEMB     59       POPC     H4S      HAL2     0.900000E-01   1.00800           0
      7823 MEMB     59       POPC     C25      CTL2    -0.180000       12.0110           0
      7824 MEMB     59       POPC     H5R      HAL2     0.900000E-01   1.00800           0
      7825 MEMB     59       POPC     H5S      HAL2     0.900000E-01   1.00800           0
      7826 MEMB     59       POPC     C26      CTL2    -0.180000       12.0110           0
      7827 MEMB     59       POPC     H6R      HAL2     0.900000E-01   1.00800           0
      7828 MEMB     59       POPC     H6S      HAL2     0.900000E-01   1.00800           0
      7829 MEMB     59       POPC     C27      CTL2    -0.180000       12.0110           0
      7830 MEMB     59       POPC     H7R      HAL2     0.900000E-01   1.00800           0
      7831 MEMB     59       POPC     H7S      HAL2     0.900000E-01   1.00800           0
      7832 MEMB     59       POPC     C28      CTL2    -0.180000       12.0110           0
      7833 MEMB     59       POPC     H8R      HAL2     0.900000E-01   1.00800           0
      7834 MEMB     59       POPC     H8S      HAL2     0.900000E-01   1.00800           0
      7835 MEMB     59       POPC     C29      CEL1    -0.150000       12.0110           0
      7836 MEMB     59       POPC     H91      HEL1     0.150000       1.00800           0
      7837 MEMB     59       POPC     C210     CEL1    -0.150000       12.0110           0
      7838 MEMB     59       POPC     H101     HEL1     0.150000       1.00800           0
      7839 MEMB     59       POPC     C211     CTL2    -0.180000       12.0110           0
      7840 MEMB     59       POPC     H11R     HAL2     0.900000E-01   1.00800           0
      7841 MEMB     59       POPC     H11S     HAL2     0.900000E-01   1.00800           0
      7842 MEMB     59       POPC     C212     CTL2    -0.180000       12.0110           0
      7843 MEMB     59       POPC     H12R     HAL2     0.900000E-01   1.00800           0
      7844 MEMB     59       POPC     H12S     HAL2     0.900000E-01   1.00800           0
      7845 MEMB     59       POPC     C213     CTL2    -0.180000       12.0110           0
      7846 MEMB     59       POPC     H13R     HAL2     0.900000E-01   1.00800           0
      7847 MEMB     59       POPC     H13S     HAL2     0.900000E-01   1.00800           0
      7848 MEMB     59       POPC     C214     CTL2    -0.180000       12.0110           0
      7849 MEMB     59       POPC     H14R     HAL2     0.900000E-01   1.00800           0
      7850 MEMB     59       POPC     H14S     HAL2     0.900000E-01   1.00800           0
      7851 MEMB     59       POPC     C215     CTL2    -0.180000       12.0110           0
      7852 MEMB     59       POPC     H15R     HAL2     0.900000E-01   1.00800           0
      7853 MEMB     59       POPC     H15S     HAL2     0.900000E-01   1.00800           0
      7854 MEMB     59       POPC     C216     CTL2    -0.180000       12.0110           0
      7855 MEMB     59       POPC     H16R     HAL2     0.900000E-01   1.00800           0
      7856 MEMB     59       POPC     H16S     HAL2     0.900000E-01   1.00800           0
      7857 MEMB     59       POPC     C217     CTL2    -0.180000       12.0110           0
      7858 MEMB     59       POPC     H17R     HAL2     0.900000E-01   1.00800           0
      7859 MEMB     59       POPC     H17S     HAL2     0.900000E-01   1.00800           0
      7860 MEMB     59       POPC     C218     CTL3    -0.270000       12.0110           0
      7861 MEMB     59       POPC     H18R     HAL3     0.900000E-01   1.00800           0
      7862 MEMB     59       POPC     H18S     HAL3     0.900000E-01   1.00800           0
      7863 MEMB     59       POPC     H18T     HAL3     0.900000E-01   1.00800           0
      7864 MEMB     59       POPC     C33      CTL2    -0.180000       12.0110           0
      7865 MEMB     59       POPC     H3X      HAL2     0.900000E-01   1.00800           0
      7866 MEMB     59       POPC     H3Y      HAL2     0.900000E-01   1.00800           0
      7867 MEMB     59       POPC     C34      CTL2    -0.180000       12.0110           0
      7868 MEMB     59       POPC     H4X      HAL2     0.900000E-01   1.00800           0
      7869 MEMB     59       POPC     H4Y      HAL2     0.900000E-01   1.00800           0
      7870 MEMB     59       POPC     C35      CTL2    -0.180000       12.0110           0
      7871 MEMB     59       POPC     H5X      HAL2     0.900000E-01   1.00800           0
      7872 MEMB     59       POPC     H5Y      HAL2     0.900000E-01   1.00800           0
      7873 MEMB     59       POPC     C36      CTL2    -0.180000       12.0110           0
      7874 MEMB     59       POPC     H6X      HAL2     0.900000E-01   1.00800           0
      7875 MEMB     59       POPC     H6Y      HAL2     0.900000E-01   1.00800           0
      7876 MEMB     59       POPC     C37      CTL2    -0.180000       12.0110           0
      7877 MEMB     59       POPC     H7X      HAL2     0.900000E-01   1.00800           0
      7878 MEMB     59       POPC     H7Y      HAL2     0.900000E-01   1.00800           0
      7879 MEMB     59       POPC     C38      CTL2    -0.180000       12.0110           0
      7880 MEMB     59       POPC     H8X      HAL2     0.900000E-01   1.00800           0
      7881 MEMB     59       POPC     H8Y      HAL2     0.900000E-01   1.00800           0
      7882 MEMB     59       POPC     C39      CTL2    -0.180000       12.0110           0
      7883 MEMB     59       POPC     H9X      HAL2     0.900000E-01   1.00800           0
      7884 MEMB     59       POPC     H9Y      HAL2     0.900000E-01   1.00800           0
      7885 MEMB     59       POPC     C310     CTL2    -0.180000       12.0110           0
      7886 MEMB     59       POPC     H10X     HAL2     0.900000E-01   1.00800           0
      7887 MEMB     59       POPC     H10Y     HAL2     0.900000E-01   1.00800           0
      7888 MEMB     59       POPC     C311     CTL2    -0.180000       12.0110           0
      7889 MEMB     59       POPC     H11X     HAL2     0.900000E-01   1.00800           0
      7890 MEMB     59       POPC     H11Y     HAL2     0.900000E-01   1.00800           0
      7891 MEMB     59       POPC     C312     CTL2    -0.180000       12.0110           0
      7892 MEMB     59       POPC     H12X     HAL2     0.900000E-01   1.00800           0
      7893 MEMB     59       POPC     H12Y     HAL2     0.900000E-01   1.00800           0
      7894 MEMB     59       POPC     C313     CTL2    -0.180000       12.0110           0
      7895 MEMB     59       POPC     H13X     HAL2     0.900000E-01   1.00800           0
      7896 MEMB     59       POPC     H13Y     HAL2     0.900000E-01   1.00800           0
      7897 MEMB     59       POPC     C314     CTL2    -0.180000       12.0110           0
      7898 MEMB     59       POPC     H14X     HAL2     0.900000E-01   1.00800           0
      7899 MEMB     59       POPC     H14Y     HAL2     0.900000E-01   1.00800           0
      7900 MEMB     59       POPC     C315     CTL2    -0.180000       12.0110           0
      7901 MEMB     59       POPC     H15X     HAL2     0.900000E-01   1.00800           0
      7902 MEMB     59       POPC     H15Y     HAL2     0.900000E-01   1.00800           0
      7903 MEMB     59       POPC     C316     CTL3    -0.270000       12.0110           0
      7904 MEMB     59       POPC     H16X     HAL3     0.900000E-01   1.00800           0
      7905 MEMB     59       POPC     H16Y     HAL3     0.900000E-01   1.00800           0
      7906 MEMB     59       POPC     H16Z     HAL3     0.900000E-01   1.00800           0
      7907 MEMB     60       POPC     N        NTL     -0.600000       14.0070           0
      7908 MEMB     60       POPC     C12      CTL2    -0.100000       12.0110           0
      7909 MEMB     60       POPC     H12A     HL       0.250000       1.00800           0
      7910 MEMB     60       POPC     H12B     HL       0.250000       1.00800           0
      7911 MEMB     60       POPC     C13      CTL5    -0.350000       12.0110           0
      7912 MEMB     60       POPC     H13A     HL       0.250000       1.00800           0
      7913 MEMB     60       POPC     H13B     HL       0.250000       1.00800           0
      7914 MEMB     60       POPC     H13C     HL       0.250000       1.00800           0
      7915 MEMB     60       POPC     C14      CTL5    -0.350000       12.0110           0
      7916 MEMB     60       POPC     H14A     HL       0.250000       1.00800           0
      7917 MEMB     60       POPC     H14B     HL       0.250000       1.00800           0
      7918 MEMB     60       POPC     H14C     HL       0.250000       1.00800           0
      7919 MEMB     60       POPC     C15      CTL5    -0.350000       12.0110           0
      7920 MEMB     60       POPC     H15A     HL       0.250000       1.00800           0
      7921 MEMB     60       POPC     H15B     HL       0.250000       1.00800           0
      7922 MEMB     60       POPC     H15C     HL       0.250000       1.00800           0
      7923 MEMB     60       POPC     C11      CTL2    -0.800000E-01   12.0110           0
      7924 MEMB     60       POPC     H11A     HAL2     0.900000E-01   1.00800           0
      7925 MEMB     60       POPC     H11B     HAL2     0.900000E-01   1.00800           0
      7926 MEMB     60       POPC     P        PL        1.50000       30.9740           0
      7927 MEMB     60       POPC     O13      O2L     -0.780000       15.9994           0
      7928 MEMB     60       POPC     O14      O2L     -0.780000       15.9994           0
      7929 MEMB     60       POPC     O12      OSLP    -0.570000       15.9994           0
      7930 MEMB     60       POPC     O11      OSLP    -0.570000       15.9994           0
      7931 MEMB     60       POPC     C1       CTL2    -0.800000E-01   12.0110           0
      7932 MEMB     60       POPC     HA       HAL2     0.900000E-01   1.00800           0
      7933 MEMB     60       POPC     HB       HAL2     0.900000E-01   1.00800           0
      7934 MEMB     60       POPC     C2       CTL1     0.170000       12.0110           0
      7935 MEMB     60       POPC     HS       HAL1     0.900000E-01   1.00800           0
      7936 MEMB     60       POPC     O21      OSL     -0.490000       15.9994           0
      7937 MEMB     60       POPC     C21      CL       0.900000       12.0110           0
      7938 MEMB     60       POPC     O22      OBL     -0.630000       15.9994           0
      7939 MEMB     60       POPC     C22      CTL2    -0.220000       12.0110           0
      7940 MEMB     60       POPC     H2R      HAL2     0.900000E-01   1.00800           0
      7941 MEMB     60       POPC     H2S      HAL2     0.900000E-01   1.00800           0
      7942 MEMB     60       POPC     C3       CTL2     0.800000E-01   12.0110           0
      7943 MEMB     60       POPC     HX       HAL2     0.900000E-01   1.00800           0
      7944 MEMB     60       POPC     HY       HAL2     0.900000E-01   1.00800           0
      7945 MEMB     60       POPC     O31      OSL     -0.490000       15.9994           0
      7946 MEMB     60       POPC     C31      CL       0.900000       12.0110           0
      7947 MEMB     60       POPC     O32      OBL     -0.630000       15.9994           0
      7948 MEMB     60       POPC     C32      CTL2    -0.220000       12.0110           0
      7949 MEMB     60       POPC     H2X      HAL2     0.900000E-01   1.00800           0
      7950 MEMB     60       POPC     H2Y      HAL2     0.900000E-01   1.00800           0
      7951 MEMB     60       POPC     C23      CTL2    -0.180000       12.0110           0
      7952 MEMB     60       POPC     H3R      HAL2     0.900000E-01   1.00800           0
      7953 MEMB     60       POPC     H3S      HAL2     0.900000E-01   1.00800           0
      7954 MEMB     60       POPC     C24      CTL2    -0.180000       12.0110           0
      7955 MEMB     60       POPC     H4R      HAL2     0.900000E-01   1.00800           0
      7956 MEMB     60       POPC     H4S      HAL2     0.900000E-01   1.00800           0
      7957 MEMB     60       POPC     C25      CTL2    -0.180000       12.0110           0
      7958 MEMB     60       POPC     H5R      HAL2     0.900000E-01   1.00800           0
      7959 MEMB     60       POPC     H5S      HAL2     0.900000E-01   1.00800           0
      7960 MEMB     60       POPC     C26      CTL2    -0.180000       12.0110           0
      7961 MEMB     60       POPC     H6R      HAL2     0.900000E-01   1.00800           0
      7962 MEMB     60       POPC     H6S      HAL2     0.900000E-01   1.00800           0
      7963 MEMB     60       POPC     C27      CTL2    -0.180000       12.0110           0
      7964 MEMB     60       POPC     H7R      HAL2     0.900000E-01   1.00800           0
      7965 MEMB     60       POPC     H7S      HAL2     0.900000E-01   1.00800           0
      7966 MEMB     60       POPC     C28      CTL2    -0.180000       12.0110           0
      7967 MEMB     60       POPC     H8R      HAL2     0.900000E-01   1.00800           0
      7968 MEMB     60       POPC     H8S      HAL2     0.900000E-01   1.00800           0
      7969 MEMB     60       POPC     C29      CEL1    -0.150000       12.0110           0
      7970 MEMB     60       POPC     H91      HEL1     0.150000       1.00800           0
      7971 MEMB     60       POPC     C210     CEL1    -0.150000       12.0110           0
      7972 MEMB     60       POPC     H101     HEL1     0.150000       1.00800           0
      7973 MEMB     60       POPC     C211     CTL2    -0.180000       12.0110           0
      7974 MEMB     60       POPC     H11R     HAL2     0.900000E-01   1.00800           0
      7975 MEMB     60       POPC     H11S     HAL2     0.900000E-01   1.00800           0
      7976 MEMB     60       POPC     C212     CTL2    -0.180000       12.0110           0
      7977 MEMB     60       POPC     H12R     HAL2     0.900000E-01   1.00800           0
      7978 MEMB     60       POPC     H12S     HAL2     0.900000E-01   1.00800           0
      7979 MEMB     60       POPC     C213     CTL2    -0.180000       12.0110           0
      7980 MEMB     60       POPC     H13R     HAL2     0.900000E-01   1.00800           0
      7981 MEMB     60       POPC     H13S     HAL2     0.900000E-01   1.00800           0
      7982 MEMB     60       POPC     C214     CTL2    -0.180000       12.0110           0
      7983 MEMB     60       POPC     H14R     HAL2     0.900000E-01   1.00800           0
      7984 MEMB     60       POPC     H14S     HAL2     0.900000E-01   1.00800           0
      7985 MEMB     60       POPC     C215     CTL2    -0.180000       12.0110           0
      7986 MEMB     60       POPC     H15R     HAL2     0.900000E-01   1.00800           0
      7987 MEMB     60       POPC     H15S     HAL2     0.900000E-01   1.00800           0
      7988 MEMB     60       POPC     C216     CTL2    -0.180000       12.0110           0
      7989 MEMB     60       POPC     H16R     HAL2     0.900000E-01   1.00800           0
      7990 MEMB     60       POPC     H16S     HAL2     0.900000E-01   1.00800           0
      7991 MEMB     60       POPC     C217     CTL2    -0.180000       12.0110           0
      7992 MEMB     60       POPC     H17R     HAL2     0.900000E-01   1.00800           0
      7993 MEMB     60       POPC     H17S     HAL2     0.900000E-01   1.00800           0
      7994 MEMB     60       POPC     C218     CTL3    -0.270000       12.0110           0
      7995 MEMB     60       POPC     H18R     HAL3     0.900000E-01   1.00800           0
      7996 MEMB     60       POPC     H18S     HAL3     0.900000E-01   1.00800           0
      7997 MEMB     60       POPC     H18T     HAL3     0.900000E-01   1.00800           0
      7998 MEMB     60       POPC     C33      CTL2    -0.180000       12.0110           0
      7999 MEMB     60       POPC     H3X      HAL2     0.900000E-01   1.00800           0
      8000 MEMB     60       POPC     H3Y      HAL2     0.900000E-01   1.00800           0
      8001 MEMB     60       POPC     C34      CTL2    -0.180000       12.0110           0
      8002 MEMB     60       POPC     H4X      HAL2     0.900000E-01   1.00800           0
      8003 MEMB     60       POPC     H4Y      HAL2     0.900000E-01   1.00800           0
      8004 MEMB     60       POPC     C35      CTL2    -0.180000       12.0110           0
      8005 MEMB     60       POPC     H5X      HAL2     0.900000E-01   1.00800           0
      8006 MEMB     60       POPC     H5Y      HAL2     0.900000E-01   1.00800           0
      8007 MEMB     60       POPC     C36      CTL2    -0.180000       12.0110           0
      8008 MEMB     60       POPC     H6X      HAL2     0.900000E-01   1.00800           0
      8009 MEMB     60       POPC     H6Y      HAL2     0.900000E-01   1.00800           0
      8010 MEMB     60       POPC     C37      CTL2    -0.180000       12.0110           0
      8011 MEMB     60       POPC     H7X      HAL2     0.900000E-01   1.00800           0
      8012 MEMB     60       POPC     H7Y      HAL2     0.900000E-01   1.00800           0
      8013 MEMB     60       POPC     C38      CTL2    -0.180000       12.0110           0
      8014 MEMB     60       POPC     H8X      HAL2     0.900000E-01   1.00800           0
      8015 MEMB     60       POPC     H8Y      HAL2     0.900000E-01   1.00800           0
      8016 MEMB     60       POPC     C39      CTL2    -0.180000       12.0110           0
      8017 MEMB     60       POPC     H9X      HAL2     0.900000E-01   1.00800           0
      8018 MEMB     60       POPC     H9Y      HAL2     0.900000E-01   1.00800           0
      8019 MEMB     60       POPC     C310     CTL2    -0.180000       12.0110           0
      8020 MEMB     60       POPC     H10X     HAL2     0.900000E-01   1.00800           0
      8021 MEMB     60       POPC     H10Y     HAL2     0.900000E-01   1.00800           0
      8022 MEMB     60       POPC     C311     CTL2    -0.180000       12.0110           0
      8023 MEMB     60       POPC     H11X     HAL2     0.900000E-01   1.00800           0
      8024 MEMB     60       POPC     H11Y     HAL2     0.900000E-01   1.00800           0
      8025 MEMB     60       POPC     C312     CTL2    -0.180000       12.0110           0
      8026 MEMB     60       POPC     H12X     HAL2     0.900000E-01   1.00800           0
      8027 MEMB     60       POPC     H12Y     HAL2     0.900000E-01   1.00800           0
      8028 MEMB     60       POPC     C313     CTL2    -0.180000       12.0110           0
      8029 MEMB     60       POPC     H13X     HAL2     0.900000E-01   1.00800           0
      8030 MEMB     60       POPC     H13Y     HAL2     0.900000E-01   1.00800           0
      8031 MEMB     60       POPC     C314     CTL2    -0.180000       12.0110           0
      8032 MEMB     60       POPC     H14X     HAL2     0.900000E-01   1.00800           0
      8033 MEMB     60       POPC     H14Y     HAL2     0.900000E-01   1.00800           0
      8034 MEMB     60       POPC     C315     CTL2    -0.180000       12.0110           0
      8035 MEMB     60       POPC     H15X     HAL2     0.900000E-01   1.00800           0
      8036 MEMB     60       POPC     H15Y     HAL2     0.900000E-01   1.00800           0
      8037 MEMB     60       POPC     C316     CTL3    -0.270000       12.0110           0
      8038 MEMB     60       POPC     H16X     HAL3     0.900000E-01   1.00800           0
      8039 MEMB     60       POPC     H16Y     HAL3     0.900000E-01   1.00800           0
      8040 MEMB     60       POPC     H16Z     HAL3     0.900000E-01   1.00800           0
      8041 MEMB     61       POPC     N        NTL     -0.600000       14.0070           0
      8042 MEMB     61       POPC     C12      CTL2    -0.100000       12.0110           0
      8043 MEMB     61       POPC     H12A     HL       0.250000       1.00800           0
      8044 MEMB     61       POPC     H12B     HL       0.250000       1.00800           0
      8045 MEMB     61       POPC     C13      CTL5    -0.350000       12.0110           0
      8046 MEMB     61       POPC     H13A     HL       0.250000       1.00800           0
      8047 MEMB     61       POPC     H13B     HL       0.250000       1.00800           0
      8048 MEMB     61       POPC     H13C     HL       0.250000       1.00800           0
      8049 MEMB     61       POPC     C14      CTL5    -0.350000       12.0110           0
      8050 MEMB     61       POPC     H14A     HL       0.250000       1.00800           0
      8051 MEMB     61       POPC     H14B     HL       0.250000       1.00800           0
      8052 MEMB     61       POPC     H14C     HL       0.250000       1.00800           0
      8053 MEMB     61       POPC     C15      CTL5    -0.350000       12.0110           0
      8054 MEMB     61       POPC     H15A     HL       0.250000       1.00800           0
      8055 MEMB     61       POPC     H15B     HL       0.250000       1.00800           0
      8056 MEMB     61       POPC     H15C     HL       0.250000       1.00800           0
      8057 MEMB     61       POPC     C11      CTL2    -0.800000E-01   12.0110           0
      8058 MEMB     61       POPC     H11A     HAL2     0.900000E-01   1.00800           0
      8059 MEMB     61       POPC     H11B     HAL2     0.900000E-01   1.00800           0
      8060 MEMB     61       POPC     P        PL        1.50000       30.9740           0
      8061 MEMB     61       POPC     O13      O2L     -0.780000       15.9994           0
      8062 MEMB     61       POPC     O14      O2L     -0.780000       15.9994           0
      8063 MEMB     61       POPC     O12      OSLP    -0.570000       15.9994           0
      8064 MEMB     61       POPC     O11      OSLP    -0.570000       15.9994           0
      8065 MEMB     61       POPC     C1       CTL2    -0.800000E-01   12.0110           0
      8066 MEMB     61       POPC     HA       HAL2     0.900000E-01   1.00800           0
      8067 MEMB     61       POPC     HB       HAL2     0.900000E-01   1.00800           0
      8068 MEMB     61       POPC     C2       CTL1     0.170000       12.0110           0
      8069 MEMB     61       POPC     HS       HAL1     0.900000E-01   1.00800           0
      8070 MEMB     61       POPC     O21      OSL     -0.490000       15.9994           0
      8071 MEMB     61       POPC     C21      CL       0.900000       12.0110           0
      8072 MEMB     61       POPC     O22      OBL     -0.630000       15.9994           0
      8073 MEMB     61       POPC     C22      CTL2    -0.220000       12.0110           0
      8074 MEMB     61       POPC     H2R      HAL2     0.900000E-01   1.00800           0
      8075 MEMB     61       POPC     H2S      HAL2     0.900000E-01   1.00800           0
      8076 MEMB     61       POPC     C3       CTL2     0.800000E-01   12.0110           0
      8077 MEMB     61       POPC     HX       HAL2     0.900000E-01   1.00800           0
      8078 MEMB     61       POPC     HY       HAL2     0.900000E-01   1.00800           0
      8079 MEMB     61       POPC     O31      OSL     -0.490000       15.9994           0
      8080 MEMB     61       POPC     C31      CL       0.900000       12.0110           0
      8081 MEMB     61       POPC     O32      OBL     -0.630000       15.9994           0
      8082 MEMB     61       POPC     C32      CTL2    -0.220000       12.0110           0
      8083 MEMB     61       POPC     H2X      HAL2     0.900000E-01   1.00800           0
      8084 MEMB     61       POPC     H2Y      HAL2     0.900000E-01   1.00800           0
      8085 MEMB     61       POPC     C23      CTL2    -0.180000       12.0110           0
      8086 MEMB     61       POPC     H3R      HAL2     0.900000E-01   1.00800           0
      8087 MEMB     61       POPC     H3S      HAL2     0.900000E-01   1.00800           0
      8088 MEMB     61       POPC     C24      CTL2    -0.180000       12.0110           0
      8089 MEMB     61       POPC     H4R      HAL2     0.900000E-01   1.00800           0
      8090 MEMB     61       POPC     H4S      HAL2     0.900000E-01   1.00800           0
      8091 MEMB     61       POPC     C25      CTL2    -0.180000       12.0110           0
      8092 MEMB     61       POPC     H5R      HAL2     0.900000E-01   1.00800           0
      8093 MEMB     61       POPC     H5S      HAL2     0.900000E-01   1.00800           0
      8094 MEMB     61       POPC     C26      CTL2    -0.180000       12.0110           0
      8095 MEMB     61       POPC     H6R      HAL2     0.900000E-01   1.00800           0
      8096 MEMB     61       POPC     H6S      HAL2     0.900000E-01   1.00800           0
      8097 MEMB     61       POPC     C27      CTL2    -0.180000       12.0110           0
      8098 MEMB     61       POPC     H7R      HAL2     0.900000E-01   1.00800           0
      8099 MEMB     61       POPC     H7S      HAL2     0.900000E-01   1.00800           0
      8100 MEMB     61       POPC     C28      CTL2    -0.180000       12.0110           0
      8101 MEMB     61       POPC     H8R      HAL2     0.900000E-01   1.00800           0
      8102 MEMB     61       POPC     H8S      HAL2     0.900000E-01   1.00800           0
      8103 MEMB     61       POPC     C29      CEL1    -0.150000       12.0110           0
      8104 MEMB     61       POPC     H91      HEL1     0.150000       1.00800           0
      8105 MEMB     61       POPC     C210     CEL1    -0.150000       12.0110           0
      8106 MEMB     61       POPC     H101     HEL1     0.150000       1.00800           0
      8107 MEMB     61       POPC     C211     CTL2    -0.180000       12.0110           0
      8108 MEMB     61       POPC     H11R     HAL2     0.900000E-01   1.00800           0
      8109 MEMB     61       POPC     H11S     HAL2     0.900000E-01   1.00800           0
      8110 MEMB     61       POPC     C212     CTL2    -0.180000       12.0110           0
      8111 MEMB     61       POPC     H12R     HAL2     0.900000E-01   1.00800           0
      8112 MEMB     61       POPC     H12S     HAL2     0.900000E-01   1.00800           0
      8113 MEMB     61       POPC     C213     CTL2    -0.180000       12.0110           0
      8114 MEMB     61       POPC     H13R     HAL2     0.900000E-01   1.00800           0
      8115 MEMB     61       POPC     H13S     HAL2     0.900000E-01   1.00800           0
      8116 MEMB     61       POPC     C214     CTL2    -0.180000       12.0110           0
      8117 MEMB     61       POPC     H14R     HAL2     0.900000E-01   1.00800           0
      8118 MEMB     61       POPC     H14S     HAL2     0.900000E-01   1.00800           0
      8119 MEMB     61       POPC     C215     CTL2    -0.180000       12.0110           0
      8120 MEMB     61       POPC     H15R     HAL2     0.900000E-01   1.00800           0
      8121 MEMB     61       POPC     H15S     HAL2     0.900000E-01   1.00800           0
      8122 MEMB     61       POPC     C216     CTL2    -0.180000       12.0110           0
      8123 MEMB     61       POPC     H16R     HAL2     0.900000E-01   1.00800           0
      8124 MEMB     61       POPC     H16S     HAL2     0.900000E-01   1.00800           0
      8125 MEMB     61       POPC     C217     CTL2    -0.180000       12.0110           0
      8126 MEMB     61       POPC     H17R     HAL2     0.900000E-01   1.00800           0
      8127 MEMB     61       POPC     H17S     HAL2     0.900000E-01   1.00800           0
      8128 MEMB     61       POPC     C218     CTL3    -0.270000       12.0110           0
      8129 MEMB     61       POPC     H18R     HAL3     0.900000E-01   1.00800           0
      8130 MEMB     61       POPC     H18S     HAL3     0.900000E-01   1.00800           0
      8131 MEMB     61       POPC     H18T     HAL3     0.900000E-01   1.00800           0
      8132 MEMB     61       POPC     C33      CTL2    -0.180000       12.0110           0
      8133 MEMB     61       POPC     H3X      HAL2     0.900000E-01   1.00800           0
      8134 MEMB     61       POPC     H3Y      HAL2     0.900000E-01   1.00800           0
      8135 MEMB     61       POPC     C34      CTL2    -0.180000       12.0110           0
      8136 MEMB     61       POPC     H4X      HAL2     0.900000E-01   1.00800           0
      8137 MEMB     61       POPC     H4Y      HAL2     0.900000E-01   1.00800           0
      8138 MEMB     61       POPC     C35      CTL2    -0.180000       12.0110           0
      8139 MEMB     61       POPC     H5X      HAL2     0.900000E-01   1.00800           0
      8140 MEMB     61       POPC     H5Y      HAL2     0.900000E-01   1.00800           0
      8141 MEMB     61       POPC     C36      CTL2    -0.180000       12.0110           0
      8142 MEMB     61       POPC     H6X      HAL2     0.900000E-01   1.00800           0
      8143 MEMB     61       POPC     H6Y      HAL2     0.900000E-01   1.00800           0
      8144 MEMB     61       POPC     C37      CTL2    -0.180000       12.0110           0
      8145 MEMB     61       POPC     H7X      HAL2     0.900000E-01   1.00800           0
      8146 MEMB     61       POPC     H7Y      HAL2     0.900000E-01   1.00800           0
      8147 MEMB     61       POPC     C38      CTL2    -0.180000       12.0110           0
      8148 MEMB     61       POPC     H8X      HAL2     0.900000E-01   1.00800           0
      8149 MEMB     61       POPC     H8Y      HAL2     0.900000E-01   1.00800           0
      8150 MEMB     61       POPC     C39      CTL2    -0.180000       12.0110           0
      8151 MEMB     61       POPC     H9X      HAL2     0.900000E-01   1.00800           0
      8152 MEMB     61       POPC     H9Y      HAL2     0.900000E-01   1.00800           0
      8153 MEMB     61       POPC     C310     CTL2    -0.180000       12.0110           0
      8154 MEMB     61       POPC     H10X     HAL2     0.900000E-01   1.00800           0
      8155 MEMB     61       POPC     H10Y     HAL2     0.900000E-01   1.00800           0
      8156 MEMB     61       POPC     C311     CTL2    -0.180000       12.0110           0
      8157 MEMB     61       POPC     H11X     HAL2     0.900000E-01   1.00800           0
      8158 MEMB     61       POPC     H11Y     HAL2     0.900000E-01   1.00800           0
      8159 MEMB     61       POPC     C312     CTL2    -0.180000       12.0110           0
      8160 MEMB     61       POPC     H12X     HAL2     0.900000E-01   1.00800           0
      8161 MEMB     61       POPC     H12Y     HAL2     0.900000E-01   1.00800           0
      8162 MEMB     61       POPC     C313     CTL2    -0.180000       12.0110           0
      8163 MEMB     61       POPC     H13X     HAL2     0.900000E-01   1.00800           0
      8164 MEMB     61       POPC     H13Y     HAL2     0.900000E-01   1.00800           0
      8165 MEMB     61       POPC     C314     CTL2    -0.180000       12.0110           0
      8166 MEMB     61       POPC     H14X     HAL2     0.900000E-01   1.00800           0
      8167 MEMB     61       POPC     H14Y     HAL2     0.900000E-01   1.00800           0
      8168 MEMB     61       POPC     C315     CTL2    -0.180000       12.0110           0
      8169 MEMB     61       POPC     H15X     HAL2     0.900000E-01   1.00800           0
      8170 MEMB     61       POPC     H15Y     HAL2     0.900000E-01   1.00800           0
      8171 MEMB     61       POPC     C316     CTL3    -0.270000       12.0110           0
      8172 MEMB     61       POPC     H16X     HAL3     0.900000E-01   1.00800           0
      8173 MEMB     61       POPC     H16Y     HAL3     0.900000E-01   1.00800           0
      8174 MEMB     61       POPC     H16Z     HAL3     0.900000E-01   1.00800           0
      8175 MEMB     62       POPC     N        NTL     -0.600000       14.0070           0
      8176 MEMB     62       POPC     C12      CTL2    -0.100000       12.0110           0
      8177 MEMB     62       POPC     H12A     HL       0.250000       1.00800           0
      8178 MEMB     62       POPC     H12B     HL       0.250000       1.00800           0
      8179 MEMB     62       POPC     C13      CTL5    -0.350000       12.0110           0
      8180 MEMB     62       POPC     H13A     HL       0.250000       1.00800           0
      8181 MEMB     62       POPC     H13B     HL       0.250000       1.00800           0
      8182 MEMB     62       POPC     H13C     HL       0.250000       1.00800           0
      8183 MEMB     62       POPC     C14      CTL5    -0.350000       12.0110           0
      8184 MEMB     62       POPC     H14A     HL       0.250000       1.00800           0
      8185 MEMB     62       POPC     H14B     HL       0.250000       1.00800           0
      8186 MEMB     62       POPC     H14C     HL       0.250000       1.00800           0
      8187 MEMB     62       POPC     C15      CTL5    -0.350000       12.0110           0
      8188 MEMB     62       POPC     H15A     HL       0.250000       1.00800           0
      8189 MEMB     62       POPC     H15B     HL       0.250000       1.00800           0
      8190 MEMB     62       POPC     H15C     HL       0.250000       1.00800           0
      8191 MEMB     62       POPC     C11      CTL2    -0.800000E-01   12.0110           0
      8192 MEMB     62       POPC     H11A     HAL2     0.900000E-01   1.00800           0
      8193 MEMB     62       POPC     H11B     HAL2     0.900000E-01   1.00800           0
      8194 MEMB     62       POPC     P        PL        1.50000       30.9740           0
      8195 MEMB     62       POPC     O13      O2L     -0.780000       15.9994           0
      8196 MEMB     62       POPC     O14      O2L     -0.780000       15.9994           0
      8197 MEMB     62       POPC     O12      OSLP    -0.570000       15.9994           0
      8198 MEMB     62       POPC     O11      OSLP    -0.570000       15.9994           0
      8199 MEMB     62       POPC     C1       CTL2    -0.800000E-01   12.0110           0
      8200 MEMB     62       POPC     HA       HAL2     0.900000E-01   1.00800           0
      8201 MEMB     62       POPC     HB       HAL2     0.900000E-01   1.00800           0
      8202 MEMB     62       POPC     C2       CTL1     0.170000       12.0110           0
      8203 MEMB     62       POPC     HS       HAL1     0.900000E-01   1.00800           0
      8204 MEMB     62       POPC     O21      OSL     -0.490000       15.9994           0
      8205 MEMB     62       POPC     C21      CL       0.900000       12.0110           0
      8206 MEMB     62       POPC     O22      OBL     -0.630000       15.9994           0
      8207 MEMB     62       POPC     C22      CTL2    -0.220000       12.0110           0
      8208 MEMB     62       POPC     H2R      HAL2     0.900000E-01   1.00800           0
      8209 MEMB     62       POPC     H2S      HAL2     0.900000E-01   1.00800           0
      8210 MEMB     62       POPC     C3       CTL2     0.800000E-01   12.0110           0
      8211 MEMB     62       POPC     HX       HAL2     0.900000E-01   1.00800           0
      8212 MEMB     62       POPC     HY       HAL2     0.900000E-01   1.00800           0
      8213 MEMB     62       POPC     O31      OSL     -0.490000       15.9994           0
      8214 MEMB     62       POPC     C31      CL       0.900000       12.0110           0
      8215 MEMB     62       POPC     O32      OBL     -0.630000       15.9994           0
      8216 MEMB     62       POPC     C32      CTL2    -0.220000       12.0110           0
      8217 MEMB     62       POPC     H2X      HAL2     0.900000E-01   1.00800           0
      8218 MEMB     62       POPC     H2Y      HAL2     0.900000E-01   1.00800           0
      8219 MEMB     62       POPC     C23      CTL2    -0.180000       12.0110           0
      8220 MEMB     62       POPC     H3R      HAL2     0.900000E-01   1.00800           0
      8221 MEMB     62       POPC     H3S      HAL2     0.900000E-01   1.00800           0
      8222 MEMB     62       POPC     C24      CTL2    -0.180000       12.0110           0
      8223 MEMB     62       POPC     H4R      HAL2     0.900000E-01   1.00800           0
      8224 MEMB     62       POPC     H4S      HAL2     0.900000E-01   1.00800           0
      8225 MEMB     62       POPC     C25      CTL2    -0.180000       12.0110           0
      8226 MEMB     62       POPC     H5R      HAL2     0.900000E-01   1.00800           0
      8227 MEMB     62       POPC     H5S      HAL2     0.900000E-01   1.00800           0
      8228 MEMB     62       POPC     C26      CTL2    -0.180000       12.0110           0
      8229 MEMB     62       POPC     H6R      HAL2     0.900000E-01   1.00800           0
      8230 MEMB     62       POPC     H6S      HAL2     0.900000E-01   1.00800           0
      8231 MEMB     62       POPC     C27      CTL2    -0.180000       12.0110           0
      8232 MEMB     62       POPC     H7R      HAL2     0.900000E-01   1.00800           0
      8233 MEMB     62       POPC     H7S      HAL2     0.900000E-01   1.00800           0
      8234 MEMB     62       POPC     C28      CTL2    -0.180000       12.0110           0
      8235 MEMB     62       POPC     H8R      HAL2     0.900000E-01   1.00800           0
      8236 MEMB     62       POPC     H8S      HAL2     0.900000E-01   1.00800           0
      8237 MEMB     62       POPC     C29      CEL1    -0.150000       12.0110           0
      8238 MEMB     62       POPC     H91      HEL1     0.150000       1.00800           0
      8239 MEMB     62       POPC     C210     CEL1    -0.150000       12.0110           0
      8240 MEMB     62       POPC     H101     HEL1     0.150000       1.00800           0
      8241 MEMB     62       POPC     C211     CTL2    -0.180000       12.0110           0
      8242 MEMB     62       POPC     H11R     HAL2     0.900000E-01   1.00800           0
      8243 MEMB     62       POPC     H11S     HAL2     0.900000E-01   1.00800           0
      8244 MEMB     62       POPC     C212     CTL2    -0.180000       12.0110           0
      8245 MEMB     62       POPC     H12R     HAL2     0.900000E-01   1.00800           0
      8246 MEMB     62       POPC     H12S     HAL2     0.900000E-01   1.00800           0
      8247 MEMB     62       POPC     C213     CTL2    -0.180000       12.0110           0
      8248 MEMB     62       POPC     H13R     HAL2     0.900000E-01   1.00800           0
      8249 MEMB     62       POPC     H13S     HAL2     0.900000E-01   1.00800           0
      8250 MEMB     62       POPC     C214     CTL2    -0.180000       12.0110           0
      8251 MEMB     62       POPC     H14R     HAL2     0.900000E-01   1.00800           0
      8252 MEMB     62       POPC     H14S     HAL2     0.900000E-01   1.00800           0
      8253 MEMB     62       POPC     C215     CTL2    -0.180000       12.0110           0
      8254 MEMB     62       POPC     H15R     HAL2     0.900000E-01   1.00800           0
      8255 MEMB     62       POPC     H15S     HAL2     0.900000E-01   1.00800           0
      8256 MEMB     62       POPC     C216     CTL2    -0.180000       12.0110           0
      8257 MEMB     62       POPC     H16R     HAL2     0.900000E-01   1.00800           0
      8258 MEMB     62       POPC     H16S     HAL2     0.900000E-01   1.00800           0
      8259 MEMB     62       POPC     C217     CTL2    -0.180000       12.0110           0
      8260 MEMB     62       POPC     H17R     HAL2     0.900000E-01   1.00800           0
      8261 MEMB     62       POPC     H17S     HAL2     0.900000E-01   1.00800           0
      8262 MEMB     62       POPC     C218     CTL3    -0.270000       12.0110           0
      8263 MEMB     62       POPC     H18R     HAL3     0.900000E-01   1.00800           0
      8264 MEMB     62       POPC     H18S     HAL3     0.900000E-01   1.00800           0
      8265 MEMB     62       POPC     H18T     HAL3     0.900000E-01   1.00800           0
      8266 MEMB     62       POPC     C33      CTL2    -0.180000       12.0110           0
      8267 MEMB     62       POPC     H3X      HAL2     0.900000E-01   1.00800           0
      8268 MEMB     62       POPC     H3Y      HAL2     0.900000E-01   1.00800           0
      8269 MEMB     62       POPC     C34      CTL2    -0.180000       12.0110           0
      8270 MEMB     62       POPC     H4X      HAL2     0.900000E-01   1.00800           0
      8271 MEMB     62       POPC     H4Y      HAL2     0.900000E-01   1.00800           0
      8272 MEMB     62       POPC     C35      CTL2    -0.180000       12.0110           0
      8273 MEMB     62       POPC     H5X      HAL2     0.900000E-01   1.00800           0
      8274 MEMB     62       POPC     H5Y      HAL2     0.900000E-01   1.00800           0
      8275 MEMB     62       POPC     C36      CTL2    -0.180000       12.0110           0
      8276 MEMB     62       POPC     H6X      HAL2     0.900000E-01   1.00800           0
      8277 MEMB     62       POPC     H6Y      HAL2     0.900000E-01   1.00800           0
      8278 MEMB     62       POPC     C37      CTL2    -0.180000       12.0110           0
      8279 MEMB     62       POPC     H7X      HAL2     0.900000E-01   1.00800           0
      8280 MEMB     62       POPC     H7Y      HAL2     0.900000E-01   1.00800           0
      8281 MEMB     62       POPC     C38      CTL2    -0.180000       12.0110           0
      8282 MEMB     62       POPC     H8X      HAL2     0.900000E-01   1.00800           0
      8283 MEMB     62       POPC     H8Y      HAL2     0.900000E-01   1.00800           0
      8284 MEMB     62       POPC     C39      CTL2    -0.180000       12.0110           0
      8285 MEMB     62       POPC     H9X      HAL2     0.900000E-01   1.00800           0
      8286 MEMB     62       POPC     H9Y      HAL2     0.900000E-01   1.00800           0
      8287 MEMB     62       POPC     C310     CTL2    -0.180000       12.0110           0
      8288 MEMB     62       POPC     H10X     HAL2     0.900000E-01   1.00800           0
      8289 MEMB     62       POPC     H10Y     HAL2     0.900000E-01   1.00800           0
      8290 MEMB     62       POPC     C311     CTL2    -0.180000       12.0110           0
      8291 MEMB     62       POPC     H11X     HAL2     0.900000E-01   1.00800           0
      8292 MEMB     62       POPC     H11Y     HAL2     0.900000E-01   1.00800           0
      8293 MEMB     62       POPC     C312     CTL2    -0.180000       12.0110           0
      8294 MEMB     62       POPC     H12X     HAL2     0.900000E-01   1.00800           0
      8295 MEMB     62       POPC     H12Y     HAL2     0.900000E-01   1.00800           0
      8296 MEMB     62       POPC     C313     CTL2    -0.180000       12.0110           0
      8297 MEMB     62       POPC     H13X     HAL2     0.900000E-01   1.00800           0
      8298 MEMB     62       POPC     H13Y     HAL2     0.900000E-01   1.00800           0
      8299 MEMB     62       POPC     C314     CTL2    -0.180000       12.0110           0
      8300 MEMB     62       POPC     H14X     HAL2     0.900000E-01   1.00800           0
      8301 MEMB     62       POPC     H14Y     HAL2     0.900000E-01   1.00800           0
      8302 MEMB     62       POPC     C315     CTL2    -0.180000       12.0110           0
      8303 MEMB     62       POPC     H15X     HAL2     0.900000E-01   1.00800           0
      8304 MEMB     62       POPC     H15Y     HAL2     0.900000E-01   1.00800           0
      8305 MEMB     62       POPC     C316     CTL3    -0.270000       12.0110           0
      8306 MEMB     62       POPC     H16X     HAL3     0.900000E-01   1.00800           0
      8307 MEMB     62       POPC     H16Y     HAL3     0.900000E-01   1.00800           0
      8308 MEMB     62       POPC     H16Z     HAL3     0.900000E-01   1.00800           0
      8309 MEMB     63       POPC     N        NTL     -0.600000       14.0070           0
      8310 MEMB     63       POPC     C12      CTL2    -0.100000       12.0110           0
      8311 MEMB     63       POPC     H12A     HL       0.250000       1.00800           0
      8312 MEMB     63       POPC     H12B     HL       0.250000       1.00800           0
      8313 MEMB     63       POPC     C13      CTL5    -0.350000       12.0110           0
      8314 MEMB     63       POPC     H13A     HL       0.250000       1.00800           0
      8315 MEMB     63       POPC     H13B     HL       0.250000       1.00800           0
      8316 MEMB     63       POPC     H13C     HL       0.250000       1.00800           0
      8317 MEMB     63       POPC     C14      CTL5    -0.350000       12.0110           0
      8318 MEMB     63       POPC     H14A     HL       0.250000       1.00800           0
      8319 MEMB     63       POPC     H14B     HL       0.250000       1.00800           0
      8320 MEMB     63       POPC     H14C     HL       0.250000       1.00800           0
      8321 MEMB     63       POPC     C15      CTL5    -0.350000       12.0110           0
      8322 MEMB     63       POPC     H15A     HL       0.250000       1.00800           0
      8323 MEMB     63       POPC     H15B     HL       0.250000       1.00800           0
      8324 MEMB     63       POPC     H15C     HL       0.250000       1.00800           0
      8325 MEMB     63       POPC     C11      CTL2    -0.800000E-01   12.0110           0
      8326 MEMB     63       POPC     H11A     HAL2     0.900000E-01   1.00800           0
      8327 MEMB     63       POPC     H11B     HAL2     0.900000E-01   1.00800           0
      8328 MEMB     63       POPC     P        PL        1.50000       30.9740           0
      8329 MEMB     63       POPC     O13      O2L     -0.780000       15.9994           0
      8330 MEMB     63       POPC     O14      O2L     -0.780000       15.9994           0
      8331 MEMB     63       POPC     O12      OSLP    -0.570000       15.9994           0
      8332 MEMB     63       POPC     O11      OSLP    -0.570000       15.9994           0
      8333 MEMB     63       POPC     C1       CTL2    -0.800000E-01   12.0110           0
      8334 MEMB     63       POPC     HA       HAL2     0.900000E-01   1.00800           0
      8335 MEMB     63       POPC     HB       HAL2     0.900000E-01   1.00800           0
      8336 MEMB     63       POPC     C2       CTL1     0.170000       12.0110           0
      8337 MEMB     63       POPC     HS       HAL1     0.900000E-01   1.00800           0
      8338 MEMB     63       POPC     O21      OSL     -0.490000       15.9994           0
      8339 MEMB     63       POPC     C21      CL       0.900000       12.0110           0
      8340 MEMB     63       POPC     O22      OBL     -0.630000       15.9994           0
      8341 MEMB     63       POPC     C22      CTL2    -0.220000       12.0110           0
      8342 MEMB     63       POPC     H2R      HAL2     0.900000E-01   1.00800           0
      8343 MEMB     63       POPC     H2S      HAL2     0.900000E-01   1.00800           0
      8344 MEMB     63       POPC     C3       CTL2     0.800000E-01   12.0110           0
      8345 MEMB     63       POPC     HX       HAL2     0.900000E-01   1.00800           0
      8346 MEMB     63       POPC     HY       HAL2     0.900000E-01   1.00800           0
      8347 MEMB     63       POPC     O31      OSL     -0.490000       15.9994           0
      8348 MEMB     63       POPC     C31      CL       0.900000       12.0110           0
      8349 MEMB     63       POPC     O32      OBL     -0.630000       15.9994           0
      8350 MEMB     63       POPC     C32      CTL2    -0.220000       12.0110           0
      8351 MEMB     63       POPC     H2X      HAL2     0.900000E-01   1.00800           0
      8352 MEMB     63       POPC     H2Y      HAL2     0.900000E-01   1.00800           0
      8353 MEMB     63       POPC     C23      CTL2    -0.180000       12.0110           0
      8354 MEMB     63       POPC     H3R      HAL2     0.900000E-01   1.00800           0
      8355 MEMB     63       POPC     H3S      HAL2     0.900000E-01   1.00800           0
      8356 MEMB     63       POPC     C24      CTL2    -0.180000       12.0110           0
      8357 MEMB     63       POPC     H4R      HAL2     0.900000E-01   1.00800           0
      8358 MEMB     63       POPC     H4S      HAL2     0.900000E-01   1.00800           0
      8359 MEMB     63       POPC     C25      CTL2    -0.180000       12.0110           0
      8360 MEMB     63       POPC     H5R      HAL2     0.900000E-01   1.00800           0
      8361 MEMB     63       POPC     H5S      HAL2     0.900000E-01   1.00800           0
      8362 MEMB     63       POPC     C26      CTL2    -0.180000       12.0110           0
      8363 MEMB     63       POPC     H6R      HAL2     0.900000E-01   1.00800           0
      8364 MEMB     63       POPC     H6S      HAL2     0.900000E-01   1.00800           0
      8365 MEMB     63       POPC     C27      CTL2    -0.180000       12.0110           0
      8366 MEMB     63       POPC     H7R      HAL2     0.900000E-01   1.00800           0
      8367 MEMB     63       POPC     H7S      HAL2     0.900000E-01   1.00800           0
      8368 MEMB     63       POPC     C28      CTL2    -0.180000       12.0110           0
      8369 MEMB     63       POPC     H8R      HAL2     0.900000E-01   1.00800           0
      8370 MEMB     63       POPC     H8S      HAL2     0.900000E-01   1.00800           0
      8371 MEMB     63       POPC     C29      CEL1    -0.150000       12.0110           0
      8372 MEMB     63       POPC     H91      HEL1     0.150000       1.00800           0
      8373 MEMB     63       POPC     C210     CEL1    -0.150000       12.0110           0
      8374 MEMB     63       POPC     H101     HEL1     0.150000       1.00800           0
      8375 MEMB     63       POPC     C211     CTL2    -0.180000       12.0110           0
      8376 MEMB     63       POPC     H11R     HAL2     0.900000E-01   1.00800           0
      8377 MEMB     63       POPC     H11S     HAL2     0.900000E-01   1.00800           0
      8378 MEMB     63       POPC     C212     CTL2    -0.180000       12.0110           0
      8379 MEMB     63       POPC     H12R     HAL2     0.900000E-01   1.00800           0
      8380 MEMB     63       POPC     H12S     HAL2     0.900000E-01   1.00800           0
      8381 MEMB     63       POPC     C213     CTL2    -0.180000       12.0110           0
      8382 MEMB     63       POPC     H13R     HAL2     0.900000E-01   1.00800           0
      8383 MEMB     63       POPC     H13S     HAL2     0.900000E-01   1.00800           0
      8384 MEMB     63       POPC     C214     CTL2    -0.180000       12.0110           0
      8385 MEMB     63       POPC     H14R     HAL2     0.900000E-01   1.00800           0
      8386 MEMB     63       POPC     H14S     HAL2     0.900000E-01   1.00800           0
      8387 MEMB     63       POPC     C215     CTL2    -0.180000       12.0110           0
      8388 MEMB     63       POPC     H15R     HAL2     0.900000E-01   1.00800           0
      8389 MEMB     63       POPC     H15S     HAL2     0.900000E-01   1.00800           0
      8390 MEMB     63       POPC     C216     CTL2    -0.180000       12.0110           0
      8391 MEMB     63       POPC     H16R     HAL2     0.900000E-01   1.00800           0
      8392 MEMB     63       POPC     H16S     HAL2     0.900000E-01   1.00800           0
      8393 MEMB     63       POPC     C217     CTL2    -0.180000       12.0110           0
      8394 MEMB     63       POPC     H17R     HAL2     0.900000E-01   1.00800           0
      8395 MEMB     63       POPC     H17S     HAL2     0.900000E-01   1.00800           0
      8396 MEMB     63       POPC     C218     CTL3    -0.270000       12.0110           0
      8397 MEMB     63       POPC     H18R     HAL3     0.900000E-01   1.00800           0
      8398 MEMB     63       POPC     H18S     HAL3     0.900000E-01   1.00800           0
      8399 MEMB     63       POPC     H18T     HAL3     0.900000E-01   1.00800           0
      8400 MEMB     63       POPC     C33      CTL2    -0.180000       12.0110           0
      8401 MEMB     63       POPC     H3X      HAL2     0.900000E-01   1.00800           0
      8402 MEMB     63       POPC     H3Y      HAL2     0.900000E-01   1.00800           0
      8403 MEMB     63       POPC     C34      CTL2    -0.180000       12.0110           0
      8404 MEMB     63       POPC     H4X      HAL2     0.900000E-01   1.00800           0
      8405 MEMB     63       POPC     H4Y      HAL2     0.900000E-01   1.00800           0
      8406 MEMB     63       POPC     C35      CTL2    -0.180000       12.0110           0
      8407 MEMB     63       POPC     H5X      HAL2     0.900000E-01   1.00800           0
      8408 MEMB     63       POPC     H5Y      HAL2     0.900000E-01   1.00800           0
      8409 MEMB     63       POPC     C36      CTL2    -0.180000       12.0110           0
      8410 MEMB     63       POPC     H6X      HAL2     0.900000E-01   1.00800           0
      8411 MEMB     63       POPC     H6Y      HAL2     0.900000E-01   1.00800           0
      8412 MEMB     63       POPC     C37      CTL2    -0.180000       12.0110           0
      8413 MEMB     63       POPC     H7X      HAL2     0.900000E-01   1.00800           0
      8414 MEMB     63       POPC     H7Y      HAL2     0.900000E-01   1.00800           0
      8415 MEMB     63       POPC     C38      CTL2    -0.180000       12.0110           0
      8416 MEMB     63       POPC     H8X      HAL2     0.900000E-01   1.00800           0
      8417 MEMB     63       POPC     H8Y      HAL2     0.900000E-01   1.00800           0
      8418 MEMB     63       POPC     C39      CTL2    -0.180000       12.0110           0
      8419 MEMB     63       POPC     H9X      HAL2     0.900000E-01   1.00800           0
      8420 MEMB     63       POPC     H9Y      HAL2     0.900000E-01   1.00800           0
      8421 MEMB     63       POPC     C310     CTL2    -0.180000       12.0110           0
      8422 MEMB     63       POPC     H10X     HAL2     0.900000E-01   1.00800           0
      8423 MEMB     63       POPC     H10Y     HAL2     0.900000E-01   1.00800           0
      8424 MEMB     63       POPC     C311     CTL2    -0.180000       12.0110           0
      8425 MEMB     63       POPC     H11X     HAL2     0.900000E-01   1.00800           0
      8426 MEMB     63       POPC     H11Y     HAL2     0.900000E-01   1.00800           0
      8427 MEMB     63       POPC     C312     CTL2    -0.180000       12.0110           0
      8428 MEMB     63       POPC     H12X     HAL2     0.900000E-01   1.00800           0
      8429 MEMB     63       POPC     H12Y     HAL2     0.900000E-01   1.00800           0
      8430 MEMB     63       POPC     C313     CTL2    -0.180000       12.0110           0
      8431 MEMB     63       POPC     H13X     HAL2     0.900000E-01   1.00800           0
      8432 MEMB     63       POPC     H13Y     HAL2     0.900000E-01   1.00800           0
      8433 MEMB     63       POPC     C314     CTL2    -0.180000       12.0110           0
      8434 MEMB     63       POPC     H14X     HAL2     0.900000E-01   1.00800           0
      8435 MEMB     63       POPC     H14Y     HAL2     0.900000E-01   1.00800           0
      8436 MEMB     63       POPC     C315     CTL2    -0.180000       12.0110           0
      8437 MEMB     63       POPC     H15X     HAL2     0.900000E-01   1.00800           0
      8438 MEMB     63       POPC     H15Y     HAL2     0.900000E-01   1.00800           0
      8439 MEMB     63       POPC     C316     CTL3    -0.270000       12.0110           0
      8440 MEMB     63       POPC     H16X     HAL3     0.900000E-01   1.00800           0
      8441 MEMB     63       POPC     H16Y     HAL3     0.900000E-01   1.00800           0
      8442 MEMB     63       POPC     H16Z     HAL3     0.900000E-01   1.00800           0
      8443 MEMB     64       POPC     N        NTL     -0.600000       14.0070           0
      8444 MEMB     64       POPC     C12      CTL2    -0.100000       12.0110           0
      8445 MEMB     64       POPC     H12A     HL       0.250000       1.00800           0
      8446 MEMB     64       POPC     H12B     HL       0.250000       1.00800           0
      8447 MEMB     64       POPC     C13      CTL5    -0.350000       12.0110           0
      8448 MEMB     64       POPC     H13A     HL       0.250000       1.00800           0
      8449 MEMB     64       POPC     H13B     HL       0.250000       1.00800           0
      8450 MEMB     64       POPC     H13C     HL       0.250000       1.00800           0
      8451 MEMB     64       POPC     C14      CTL5    -0.350000       12.0110           0
      8452 MEMB     64       POPC     H14A     HL       0.250000       1.00800           0
      8453 MEMB     64       POPC     H14B     HL       0.250000       1.00800           0
      8454 MEMB     64       POPC     H14C     HL       0.250000       1.00800           0
      8455 MEMB     64       POPC     C15      CTL5    -0.350000       12.0110           0
      8456 MEMB     64       POPC     H15A     HL       0.250000       1.00800           0
      8457 MEMB     64       POPC     H15B     HL       0.250000       1.00800           0
      8458 MEMB     64       POPC     H15C     HL       0.250000       1.00800           0
      8459 MEMB     64       POPC     C11      CTL2    -0.800000E-01   12.0110           0
      8460 MEMB     64       POPC     H11A     HAL2     0.900000E-01   1.00800           0
      8461 MEMB     64       POPC     H11B     HAL2     0.900000E-01   1.00800           0
      8462 MEMB     64       POPC     P        PL        1.50000       30.9740           0
      8463 MEMB     64       POPC     O13      O2L     -0.780000       15.9994           0
      8464 MEMB     64       POPC     O14      O2L     -0.780000       15.9994           0
      8465 MEMB     64       POPC     O12      OSLP    -0.570000       15.9994           0
      8466 MEMB     64       POPC     O11      OSLP    -0.570000       15.9994           0
      8467 MEMB     64       POPC     C1       CTL2    -0.800000E-01   12.0110           0
      8468 MEMB     64       POPC     HA       HAL2     0.900000E-01   1.00800           0
      8469 MEMB     64       POPC     HB       HAL2     0.900000E-01   1.00800           0
      8470 MEMB     64       POPC     C2       CTL1     0.170000       12.0110           0
      8471 MEMB     64       POPC     HS       HAL1     0.900000E-01   1.00800           0
      8472 MEMB     64       POPC     O21      OSL     -0.490000       15.9994           0
      8473 MEMB     64       POPC     C21      CL       0.900000       12.0110           0
      8474 MEMB     64       POPC     O22      OBL     -0.630000       15.9994           0
      8475 MEMB     64       POPC     C22      CTL2    -0.220000       12.0110           0
      8476 MEMB     64       POPC     H2R      HAL2     0.900000E-01   1.00800           0
      8477 MEMB     64       POPC     H2S      HAL2     0.900000E-01   1.00800           0
      8478 MEMB     64       POPC     C3       CTL2     0.800000E-01   12.0110           0
      8479 MEMB     64       POPC     HX       HAL2     0.900000E-01   1.00800           0
      8480 MEMB     64       POPC     HY       HAL2     0.900000E-01   1.00800           0
      8481 MEMB     64       POPC     O31      OSL     -0.490000       15.9994           0
      8482 MEMB     64       POPC     C31      CL       0.900000       12.0110           0
      8483 MEMB     64       POPC     O32      OBL     -0.630000       15.9994           0
      8484 MEMB     64       POPC     C32      CTL2    -0.220000       12.0110           0
      8485 MEMB     64       POPC     H2X      HAL2     0.900000E-01   1.00800           0
      8486 MEMB     64       POPC     H2Y      HAL2     0.900000E-01   1.00800           0
      8487 MEMB     64       POPC     C23      CTL2    -0.180000       12.0110           0
      8488 MEMB     64       POPC     H3R      HAL2     0.900000E-01   1.00800           0
      8489 MEMB     64       POPC     H3S      HAL2     0.900000E-01   1.00800           0
      8490 MEMB     64       POPC     C24      CTL2    -0.180000       12.0110           0
      8491 MEMB     64       POPC     H4R      HAL2     0.900000E-01   1.00800           0
      8492 MEMB     64       POPC     H4S      HAL2     0.900000E-01   1.00800           0
      8493 MEMB     64       POPC     C25      CTL2    -0.180000       12.0110           0
      8494 MEMB     64       POPC     H5R      HAL2     0.900000E-01   1.00800           0
      8495 MEMB     64       POPC     H5S      HAL2     0.900000E-01   1.00800           0
      8496 MEMB     64       POPC     C26      CTL2    -0.180000       12.0110           0
      8497 MEMB     64       POPC     H6R      HAL2     0.900000E-01   1.00800           0
      8498 MEMB     64       POPC     H6S      HAL2     0.900000E-01   1.00800           0
      8499 MEMB     64       POPC     C27      CTL2    -0.180000       12.0110           0
      8500 MEMB     64       POPC     H7R      HAL2     0.900000E-01   1.00800           0
      8501 MEMB     64       POPC     H7S      HAL2     0.900000E-01   1.00800           0
      8502 MEMB     64       POPC     C28      CTL2    -0.180000       12.0110           0
      8503 MEMB     64       POPC     H8R      HAL2     0.900000E-01   1.00800           0
      8504 MEMB     64       POPC     H8S      HAL2     0.900000E-01   1.00800           0
      8505 MEMB     64       POPC     C29      CEL1    -0.150000       12.0110           0
      8506 MEMB     64       POPC     H91      HEL1     0.150000       1.00800           0
      8507 MEMB     64       POPC     C210     CEL1    -0.150000       12.0110           0
      8508 MEMB     64       POPC     H101     HEL1     0.150000       1.00800           0
      8509 MEMB     64       POPC     C211     CTL2    -0.180000       12.0110           0
      8510 MEMB     64       POPC     H11R     HAL2     0.900000E-01   1.00800           0
      8511 MEMB     64       POPC     H11S     HAL2     0.900000E-01   1.00800           0
      8512 MEMB     64       POPC     C212     CTL2    -0.180000       12.0110           0
      8513 MEMB     64       POPC     H12R     HAL2     0.900000E-01   1.00800           0
      8514 MEMB     64       POPC     H12S     HAL2     0.900000E-01   1.00800           0
      8515 MEMB     64       POPC     C213     CTL2    -0.180000       12.0110           0
      8516 MEMB     64       POPC     H13R     HAL2     0.900000E-01   1.00800           0
      8517 MEMB     64       POPC     H13S     HAL2     0.900000E-01   1.00800           0
      8518 MEMB     64       POPC     C214     CTL2    -0.180000       12.0110           0
      8519 MEMB     64       POPC     H14R     HAL2     0.900000E-01   1.00800           0
      8520 MEMB     64       POPC     H14S     HAL2     0.900000E-01   1.00800           0
      8521 MEMB     64       POPC     C215     CTL2    -0.180000       12.0110           0
      8522 MEMB     64       POPC     H15R     HAL2     0.900000E-01   1.00800           0
      8523 MEMB     64       POPC     H15S     HAL2     0.900000E-01   1.00800           0
      8524 MEMB     64       POPC     C216     CTL2    -0.180000       12.0110           0
      8525 MEMB     64       POPC     H16R     HAL2     0.900000E-01   1.00800           0
      8526 MEMB     64       POPC     H16S     HAL2     0.900000E-01   1.00800           0
      8527 MEMB     64       POPC     C217     CTL2    -0.180000       12.0110           0
      8528 MEMB     64       POPC     H17R     HAL2     0.900000E-01   1.00800           0
      8529 MEMB     64       POPC     H17S     HAL2     0.900000E-01   1.00800           0
      8530 MEMB     64       POPC     C218     CTL3    -0.270000       12.0110           0
      8531 MEMB     64       POPC     H18R     HAL3     0.900000E-01   1.00800           0
      8532 MEMB     64       POPC     H18S     HAL3     0.900000E-01   1.00800           0
      8533 MEMB     64       POPC     H18T     HAL3     0.900000E-01   1.00800           0
      8534 MEMB     64       POPC     C33      CTL2    -0.180000       12.0110           0
      8535 MEMB     64       POPC     H3X      HAL2     0.900000E-01   1.00800           0
      8536 MEMB     64       POPC     H3Y      HAL2     0.900000E-01   1.00800           0
      8537 MEMB     64       POPC     C34      CTL2    -0.180000       12.0110           0
      8538 MEMB     64       POPC     H4X      HAL2     0.900000E-01   1.00800           0
      8539 MEMB     64       POPC     H4Y      HAL2     0.900000E-01   1.00800           0
      8540 MEMB     64       POPC     C35      CTL2    -0.180000       12.0110           0
      8541 MEMB     64       POPC     H5X      HAL2     0.900000E-01   1.00800           0
      8542 MEMB     64       POPC     H5Y      HAL2     0.900000E-01   1.00800           0
      8543 MEMB     64       POPC     C36      CTL2    -0.180000       12.0110           0
      8544 MEMB     64       POPC     H6X      HAL2     0.900000E-01   1.00800           0
      8545 MEMB     64       POPC     H6Y      HAL2     0.900000E-01   1.00800           0
      8546 MEMB     64       POPC     C37      CTL2    -0.180000       12.0110           0
      8547 MEMB     64       POPC     H7X      HAL2     0.900000E-01   1.00800           0
      8548 MEMB     64       POPC     H7Y      HAL2     0.900000E-01   1.00800           0
      8549 MEMB     64       POPC     C38      CTL2    -0.180000       12.0110           0
      8550 MEMB     64       POPC     H8X      HAL2     0.900000E-01   1.00800           0
      8551 MEMB     64       POPC     H8Y      HAL2     0.900000E-01   1.00800           0
      8552 MEMB     64       POPC     C39      CTL2    -0.180000       12.0110           0
      8553 MEMB     64       POPC     H9X      HAL2     0.900000E-01   1.00800           0
      8554 MEMB     64       POPC     H9Y      HAL2     0.900000E-01   1.00800           0
      8555 MEMB     64       POPC     C310     CTL2    -0.180000       12.0110           0
      8556 MEMB     64       POPC     H10X     HAL2     0.900000E-01   1.00800           0
      8557 MEMB     64       POPC     H10Y     HAL2     0.900000E-01   1.00800           0
      8558 MEMB     64       POPC     C311     CTL2    -0.180000       12.0110           0
      8559 MEMB     64       POPC     H11X     HAL2     0.900000E-01   1.00800           0
      8560 MEMB     64       POPC     H11Y     HAL2     0.900000E-01   1.00800           0
      8561 MEMB     64       POPC     C312     CTL2    -0.180000       12.0110           0
      8562 MEMB     64       POPC     H12X     HAL2     0.900000E-01   1.00800           0
      8563 MEMB     64       POPC     H12Y     HAL2     0.900000E-01   1.00800           0
      8564 MEMB     64       POPC     C313     CTL2    -0.180000       12.0110           0
      8565 MEMB     64       POPC     H13X     HAL2     0.900000E-01   1.00800           0
      8566 MEMB     64       POPC     H13Y     HAL2     0.900000E-01   1.00800           0
      8567 MEMB     64       POPC     C314     CTL2    -0.180000       12.0110           0
      8568 MEMB     64       POPC     H14X     HAL2     0.900000E-01   1.00800           0
      8569 MEMB     64       POPC     H14Y     HAL2     0.900000E-01   1.00800           0
      8570 MEMB     64       POPC     C315     CTL2    -0.180000       12.0110           0
      8571 MEMB     64       POPC     H15X     HAL2     0.900000E-01   1.00800           0
      8572 MEMB     64       POPC     H15Y     HAL2     0.900000E-01   1.00800           0
      8573 MEMB     64       POPC     C316     CTL3    -0.270000       12.0110           0
      8574 MEMB     64       POPC     H16X     HAL3     0.900000E-01   1.00800           0
      8575 MEMB     64       POPC     H16Y     HAL3     0.900000E-01   1.00800           0
      8576 MEMB     64       POPC     H16Z     HAL3     0.900000E-01   1.00800           0

      8512 !NBOND: bonds
         1         5         1         9         1        13         5         6
         5         7         5         8         9        10         9        11
         9        12        13        14        13        15        13        16
         1         2         2         3         2         4         2        17
        17        18        17        19        17        23        24        25
        23        20        20        24        20        21        20        22
        25        26        25        27        25        28        28        29
        28        36        28        30        36        37        36        38
        36        39        30        31        31        33        31        32
        33        34        33        35        33        45        45        46
        45        47        45        48        48        49        48        50
        48        51        51        52        51        53        51        54
        54        55        54        56        54        57        57        58
        57        59        57        60        60        61        60        62
        60        63        63        64        63        65        65        66
        65        67        67        68        67        69        67        70
        70        71        70        72        70        73        73        74
        73        75        73        76        76        77        76        78
        76        79        79        80        79        81        79        82
        82        83        82        84        82        85        85        86
        85        87        85        88        88        89        88        90
        88        91        39        40        40        42        40        41
        42        43        42        44        42        92        92        93
        92        94        92        95        95        96        95        97
        95        98        98        99        98       100        98       101
       101       102       101       103       101       104       104       105
       104       106       104       107       107       108       107       109
       107       110       110       111       110       112       110       113
       113       114       113       115       113       116       116       117
       116       118       116       119       119       120       119       121
       119       122       122       123       122       124       122       125
       125       126       125       127       125       128       128       129
       128       130       128       131       131       132       131       133
       131       134       135       139       135       143       135       147
       139       140       139       141       139       142       143       144
       143       145       143       146       147       148       147       149
       147       150       135       136       136       137       136       138
       136       151       151       152       151       153       151       157
       158       159       157       154       154       158       154       155
       154       156       159       160       159       161       159       162
       162       163       162       170       162       164       170       171
       170       172       170       173       164       165       165       167
       165       166       167       168       167       169       167       179
       179       180       179       181       179       182       182       183
       182       184       182       185       185       186       185       187
       185       188       188       189       188       190       188       191
       191       192       191       193       191       194       194       195
       194       196       194       197       197       198       197       199
       199       200       199       201       201       202       201       203
       201       204       204       205       204       206       204       207
       207       208       207       209       207       210       210       211
       210       212       210       213       213       214       213       215
       213       216       216       217       216       218       216       219
       219       220       219       221       219       222       222       223
       222       224       222       225       173       174       174       176
       174       175       176       177       176       178       176       226
       226       227       226       228       226       229       229       230
       229       231       229       232       232       233       232       234
       232       235       235       236       235       237       235       238
       238       239       238       240       238       241       241       242
       241       243       241       244       244       245       244       246
       244       247       247       248       247       249       247       250
       250       251       250       252       250       253       253       254
       253       255       253       256       256       257       256       258
       256       259       259       260       259       261       259       262
       262       263       262       264       262       265       265       266
       265       267       265       268       269       273       269       277
       269       281       273       274       273       275       273       276
       277       278       277       279       277       280       281       282
       281       283       281       284       269       270       270       271
       270       272       270       285       285       286       285       287
       285       291       292       293       291       288       288       292
       288       289       288       290       293       294       293       295
       293       296       296       297       296       304       296       298
       304       305       304       306       304       307       298       299
       299       301       299       300       301       302       301       303
       301       313       313       314       313       315       313       316
       316       317       316       318       316       319       319       320
       319       321       319       322       322       323       322       324
       322       325       325       326       325       327       325       328
       328       329       328       330       328       331       331       332
       331       333       333       334       333       335       335       336
       335       337       335       338       338       339       338       340
       338       341       341       342       341       343       341       344
       344       345       344       346       344       347       347       348
       347       349       347       350       350       351       350       352
       350       353       353       354       353       355       353       356
       356       357       356       358       356       359       307       308
       308       310       308       309       310       311       310       312
       310       360       360       361       360       362       360       363
       363       364       363       365       363       366       366       367
       366       368       366       369       369       370       369       371
       369       372       372       373       372       374       372       375
       375       376       375       377       375       378       378       379
       378       380       378       381       381       382       381       383
       381       384       384       385       384       386       384       387
       387       388       387       389       387       390       390       391
       390       392       390       393       393       394       393       395
       393       396       396       397       396       398       396       399
       399       400       399       401       399       402       403       407
       403       411       403       415       407       408       407       409
       407       410       411       412       411       413       411       414
       415       416       415       417       415       418       403       404
       404       405       404       406       404       419       419       420
       419       421       419       425       426       427       425       422
       422       426       422       423       422       424       427       428
       427       429       427       430       430       431       430       438
       430       432       438       439       438       440       438       441
       432       433       433       435       433       434       435       436
       435       437       435       447       447       448       447       449
       447       450       450       451       450       452       450       453
       453       454       453       455       453       456       456       457
       456       458       456       459       459       460       459       461
       459       462       462       463       462       464       462       465
       465       466       465       467       467       468       467       469
       469       470       469       471       469       472       472       473
       472       474       472       475       475       476       475       477
       475       478       478       479       478       480       478       481
       481       482       481       483       481       484       484       485
       484       486       484       487       487       488       487       489
       487       490       490       491       490       492       490       493
       441       442       442       444       442       443       444       445
       444       446       444       494       494       495       494       496
       494       497       497       498       497       499       497       500
       500       501       500       502       500       503       503       504
       503       505       503       506       506       507       506       508
       506       509       509       510       509       511       509       512
       512       513       512       514       512       515       515       516
       515       517       515       518       518       519       518       520
       518       521       521       522       521       523       521       524
       524       525       524       526       524       527       527       528
       527       529       527       530       530       531       530       532
       530       533       533       534       533       535       533       536
       537       541       537       545       537       549       541       542
       541       543       541       544       545       546       545       547
       545       548       549       550       549       551       549       552
       537       538       538       539       538       540       538       553
       553       554       553       555       553       559       560       561
       559       556       556       560       556       557       556       558
       561       562       561       563       561       564       564       565
       564       572       564       566       572       573       572       574
       572       575       566       567       567       569       567       568
       569       570       569       571       569       581       581       582
       581       583       581       584       584       585       584       586
       584       587       587       588       587       589       587       590
       590       591       590       592       590       593       593       594
       593       595       593       596       596       597       596       598
       596       599       599       600       599       601       601       602
       601       603       603       604       603       605       603       606
       606       607       606       608       606       609       609       610
       609       611       609       612       612       613       612       614
       612       615       615       616       615       617       615       618
       618       619       618       620       618       621       621       622
       621       623       621       624       624       625       624       626
       624       627       575       576       576       578       576       577
       578       579       578       580       578       628       628       629
       628       630       628       631       631       632       631       633
       631       634       634       635       634       636       634       637
       637       638       637       639       637       640       640       641
       640       642       640       643       643       644       643       645
       643       646       646       647       646       648       646       649
       649       650       649       651       649       652       652       653
       652       654       652       655       655       656       655       657
       655       658       658       659       658       660       658       661
       661       662       661       663       661       664       664       665
       664       666       664       667       667       668       667       669
       667       670       671       675       671       679       671       683
       675       676       675       677       675       678       679       680
       679       681       679       682       683       684       683       685
       683       686       671       672       672       673       672       674
       672       687       687       688       687       689       687       693
       694       695       693       690       690       694       690       691
       690       692       695       696       695       697       695       698
       698       699       698       706       698       700       706       707
       706       708       706       709       700       701       701       703
       701       702       703       704       703       705       703       715
       715       716       715       717       715       718       718       719
       718       720       718       721       721       722       721       723
       721       724       724       725       724       726       724       727
       727       728       727       729       727       730       730       731
       730       732       730       733       733       734       733       735
       735       736       735       737       737       738       737       739
       737       740       740       741       740       742       740       743
       743       744       743       745       743       746       746       747
       746       748       746       749       749       750       749       751
       749       752       752       753       752       754       752       755
       755       756       755       757       755       758       758       759
       758       760       758       761       709       710       710       712
       710       711       712       713       712       714       712       762
       762       763       762       764       762       765       765       766
       765       767       765       768       768       769       768       770
       768       771       771       772       771       773       771       774
       774       775       774       776       774       777       777       778
       777       779       777       780       780       781       780       782
       780       783       783       784       783       785       783       786
       786       787       786       788       786       789       789       790
       789       791       789       792       792       793       792       794
       792       795       795       796       795       797       795       798
       798       799       798       800       798       801       801       802
       801       803       801       804       805       809       805       813
       805       817       809       810       809       811       809       812
       813       814       813       815       813       816       817       818
       817       819       817       820       805       806       806       807
       806       808       806       821       821       822       821       823
       821       827       828       829       827       824       824       828
       824       825       824       826       829       830       829       831
       829       832       832       833       832       840       832       834
       840       841       840       842       840       843       834       835
       835       837       835       836       837       838       837       839
       837       849       849       850       849       851       849       852
       852       853       852       854       852       855       855       856
       855       857       855       858       858       859       858       860
       858       861       861       862       861       863       861       864
       864       865       864       866       864       867       867       868
       867       869       869       870       869       871       871       872
       871       873       871       874       874       875       874       876
       874       877       877       878       877       879       877       880
       880       881       880       882       880       883       883       884
       883       885       883       886       886       887       886       888
       886       889       889       890       889       891       889       892
       892       893       892       894       892       895       843       844
       844       846       844       845       846       847       846       848
       846       896       896       897       896       898       896       899
       899       900       899       901       899       902       902       903
       902       904       902       905       905       906       905       907
       905       908       908       909       908       910       908       911
       911       912       911       913       911       914       914       915
       914       916       914       917       917       918       917       919
       917       920       920       921       920       922       920       923
       923       924       923       925       923       926       926       927
       926       928       926       929       929       930       929       931
       929       932       932       933       932       934       932       935
       935       936       935       937       935       938       939       943
       939       947       939       951       943       944       943       945
       943       946       947       948       947       949       947       950
       951       952       951       953       951       954       939       940
       940       941       940       942       940       955       955       956
       955       957       955       961       962       963       961       958
       958       962       958       959       958       960       963       964
       963       965       963       966       966       967       966       974
       966       968       974       975       974       976       974       977
       968       969       969       971       969       970       971       972
       971       973       971       983       983       984       983       985
       983       986       986       987       986       988       986       989
       989       990       989       991       989       992       992       993
       992       994       992       995       995       996       995       997
       995       998       998       999       998      1000       998      1001
      1001      1002      1001      1003      1003      1004      1003      1005
      1005      1006      1005      1007      1005      1008      1008      1009
      1008      1010      1008      1011      1011      1012      1011      1013
      1011      1014      1014      1015      1014      1016      1014      1017
      1017      1018      1017      1019      1017      1020      1020      1021
      1020      1022      1020      1023      1023      1024      1023      1025
      1023      1026      1026      1027      1026      1028      1026      1029
       977       978       978       980       978       979       980       981
       980       982       980      1030      1030      1031      1030      1032
      1030      1033      1033      1034      1033      1035      1033      1036
      1036      1037      1036      1038      1036      1039      1039      1040
      1039      1041      1039      1042      1042      1043      1042      1044
      1042      1045      1045      1046      1045      1047      1045      1048
      1048      1049      1048      1050      1048      1051      1051      1052
      1051      1053      1051      1054      1054      1055      1054      1056
      1054      1057      1057      1058      1057      1059      1057      1060
      1060      1061      1060      1062      1060      1063      1063      1064
      1063      1065      1063      1066      1066      1067      1066      1068
      1066      1069      1069      1070      1069      1071      1069      1072
      1073      1077      1073      1081      1073      1085      1077      1078
      1077      1079      1077      1080      1081      1082      1081      1083
      1081      1084      1085      1086      1085      1087      1085      1088
      1073      1074      1074      1075      1074      1076      1074      1089
      1089      1090      1089      1091      1089      1095      1096      1097
      1095      1092      1092      1096      1092      1093      1092      1094
      1097      1098      1097      1099      1097      1100      1100      1101
      1100      1108      1100      1102      1108      1109      1108      1110
      1108      1111      1102      1103      1103      1105      1103      1104
      1105      1106      1105      1107      1105      1117      1117      1118
      1117      1119      1117      1120      1120      1121      1120      1122
      1120      1123      1123      1124      1123      1125      1123      1126
      1126      1127      1126      1128      1126      1129      1129      1130
      1129      1131      1129      1132      1132      1133      1132      1134
      1132      1135      1135      1136      1135      1137      1137      1138
      1137      1139      1139      1140      1139      1141      1139      1142
      1142      1143      1142      1144      1142      1145      1145      1146
      1145      1147      1145      1148      1148      1149      1148      1150
      1148      1151      1151      1152      1151      1153      1151      1154
      1154      1155      1154      1156      1154      1157      1157      1158
      1157      1159      1157      1160      1160      1161      1160      1162
      1160      1163      1111      1112      1112      1114      1112      1113
      1114      1115      1114      1116      1114      1164      1164      1165
      1164      1166      1164      1167      1167      1168      1167      1169
      1167      1170      1170      1171      1170      1172      1170      1173
      1173      1174      1173      1175      1173      1176      1176      1177
      1176      1178      1176      1179      1179      1180      1179      1181
      1179      1182      1182      1183      1182      1184      1182      1185
      1185      1186      1185      1187      1185      1188      1188      1189
      1188      1190      1188      1191      1191      1192      1191      1193
      1191      1194      1194      1195      1194      1196      1194      1197
      1197      1198      1197      1199      1197      1200      1200      1201
      1200      1202      1200      1203      1203      1204      1203      1205
      1203      1206      1207      1211      1207      1215      1207      1219
      1211      1212      1211      1213      1211      1214      1215      1216
      1215      1217      1215      1218      1219      1220      1219      1221
      1219      1222      1207      1208      1208      1209      1208      1210
      1208      1223      1223      1224      1223      1225      1223      1229
      1230      1231      1229      1226      1226      1230      1226      1227
      1226      1228      1231      1232      1231      1233      1231      1234
      1234      1235      1234      1242      1234      1236      1242      1243
      1242      1244      1242      1245      1236      1237      1237      1239
      1237      1238      1239      1240      1239      1241      1239      1251
      1251      1252      1251      1253      1251      1254      1254      1255
      1254      1256      1254      1257      1257      1258      1257      1259
      1257      1260      1260      1261      1260      1262      1260      1263
      1263      1264      1263      1265      1263      1266      1266      1267
      1266      1268      1266      1269      1269      1270      1269      1271
      1271      1272      1271      1273      1273      1274      1273      1275
      1273      1276      1276      1277      1276      1278      1276      1279
      1279      1280      1279      1281      1279      1282      1282      1283
      1282      1284      1282      1285      1285      1286      1285      1287
      1285      1288      1288      1289      1288      1290      1288      1291
      1291      1292      1291      1293      1291      1294      1294      1295
      1294      1296      1294      1297      1245      1246      1246      1248
      1246      1247      1248      1249      1248      1250      1248      1298
      1298      1299      1298      1300      1298      1301      1301      1302
      1301      1303      1301      1304      1304      1305      1304      1306
      1304      1307      1307      1308      1307      1309      1307      1310
      1310      1311      1310      1312      1310      1313      1313      1314
      1313      1315      1313      1316      1316      1317      1316      1318
      1316      1319      1319      1320      1319      1321      1319      1322
      1322      1323      1322      1324      1322      1325      1325      1326
      1325      1327      1325      1328      1328      1329      1328      1330
      1328      1331      1331      1332      1331      1333      1331      1334
      1334      1335      1334      1336      1334      1337      1337      1338
      1337      1339      1337      1340      1341      1345      1341      1349
      1341      1353      1345      1346      1345      1347      1345      1348
      1349      1350      1349      1351      1349      1352      1353      1354
      1353      1355      1353      1356      1341      1342      1342      1343
      1342      1344      1342      1357      1357      1358      1357      1359
      1357      1363      1364      1365      1363      1360      1360      1364
      1360      1361      1360      1362      1365      1366      1365      1367
      1365      1368      1368      1369      1368      1376      1368      1370
      1376      1377      1376      1378      1376      1379      1370      1371
      1371      1373      1371      1372      1373      1374      1373      1375
      1373      1385      1385      1386      1385      1387      1385      1388
      1388      1389      1388      1390      1388      1391      1391      1392
      1391      1393      1391      1394      1394      1395      1394      1396
      1394      1397      1397      1398      1397      1399      1397      1400
      1400      1401      1400      1402      1400      1403      1403      1404
      1403      1405      1405      1406      1405      1407      1407      1408
      1407      1409      1407      1410      1410      1411      1410      1412
      1410      1413      1413      1414      1413      1415      1413      1416
      1416      1417      1416      1418      1416      1419      1419      1420
      1419      1421      1419      1422      1422      1423      1422      1424
      1422      1425      1425      1426      1425      1427      1425      1428
      1428      1429      1428      1430      1428      1431      1379      1380
      1380      1382      1380      1381      1382      1383      1382      1384
      1382      1432      1432      1433      1432      1434      1432      1435
      1435      1436      1435      1437      1435      1438      1438      1439
      1438      1440      1438      1441      1441      1442      1441      1443
      1441      1444      1444      1445      1444      1446      1444      1447
      1447      1448      1447      1449      1447      1450      1450      1451
      1450      1452      1450      1453      1453      1454      1453      1455
      1453      1456      1456      1457      1456      1458      1456      1459
      1459      1460      1459      1461      1459      1462      1462      1463
      1462      1464      1462      1465      1465      1466      1465      1467
      1465      1468      1468      1469      1468      1470      1468      1471
      1471      1472      1471      1473      1471      1474      1475      1479
      1475      1483      1475      1487      1479      1480      1479      1481
      1479      1482      1483      1484      1483      1485      1483      1486
      1487      1488      1487      1489      1487      1490      1475      1476
      1476      1477      1476      1478      1476      1491      1491      1492
      1491      1493      1491      1497      1498      1499      1497      1494
      1494      1498      1494      1495      1494      1496      1499      1500
      1499      1501      1499      1502      1502      1503      1502      1510
      1502      1504      1510      1511      1510      1512      1510      1513
      1504      1505      1505      1507      1505      1506      1507      1508
      1507      1509      1507      1519      1519      1520      1519      1521
      1519      1522      1522      1523      1522      1524      1522      1525
      1525      1526      1525      1527      1525      1528      1528      1529
      1528      1530      1528      1531      1531      1532      1531      1533
      1531      1534      1534      1535      1534      1536      1534      1537
      1537      1538      1537      1539      1539      1540      1539      1541
      1541      1542      1541      1543      1541      1544      1544      1545
      1544      1546      1544      1547      1547      1548      1547      1549
      1547      1550      1550      1551      1550      1552      1550      1553
      1553      1554      1553      1555      1553      1556      1556      1557
      1556      1558      1556      1559      1559      1560      1559      1561
      1559      1562      1562      1563      1562      1564      1562      1565
      1513      1514      1514      1516      1514      1515      1516      1517
      1516      1518      1516      1566      1566      1567      1566      1568
      1566      1569      1569      1570      1569      1571      1569      1572
      1572      1573      1572      1574      1572      1575      1575      1576
      1575      1577      1575      1578      1578      1579      1578      1580
      1578      1581      1581      1582      1581      1583      1581      1584
      1584      1585      1584      1586      1584      1587      1587      1588
      1587      1589      1587      1590      1590      1591      1590      1592
      1590      1593      1593      1594      1593      1595      1593      1596
      1596      1597      1596      1598      1596      1599      1599      1600
      1599      1601      1599      1602      1602      1603      1602      1604
      1602      1605      1605      1606      1605      1607      1605      1608
      1609      1613      1609      1617      1609      1621      1613      1614
      1613      1615      1613      1616      1617      1618      1617      1619
      1617      1620      1621      1622      1621      1623      1621      1624
      1609      1610      1610      1611      1610      1612      1610      1625
      1625      1626      1625      1627      1625      1631      1632      1633
      1631      1628      1628      1632      1628      1629      1628      1630
      1633      1634      1633      1635      1633      1636      1636      1637
      1636      1644      1636      1638      1644      1645      1644      1646
      1644      1647      1638      1639      1639      1641      1639      1640
      1641      1642      1641      1643      1641      1653      1653      1654
      1653      1655      1653      1656      1656      1657      1656      1658
      1656      1659      1659      1660      1659      1661      1659      1662
      1662      1663      1662      1664      1662      1665      1665      1666
      1665      1667      1665      1668      1668      1669      1668      1670
      1668      1671      1671      1672      1671      1673      1673      1674
      1673      1675      1675      1676      1675      1677      1675      1678
      1678      1679      1678      1680      1678      1681      1681      1682
      1681      1683      1681      1684      1684      1685      1684      1686
      1684      1687      1687      1688      1687      1689      1687      1690
      1690      1691      1690      1692      1690      1693      1693      1694
      1693      1695      1693      1696      1696      1697      1696      1698
      1696      1699      1647      1648      1648      1650      1648      1649
      1650      1651      1650      1652      1650      1700      1700      1701
      1700      1702      1700      1703      1703      1704      1703      1705
      1703      1706      1706      1707      1706      1708      1706      1709
      1709      1710      1709      1711      1709      1712      1712      1713
      1712      1714      1712      1715      1715      1716      1715      1717
      1715      1718      1718      1719      1718      1720      1718      1721
      1721      1722      1721      1723      1721      1724      1724      1725
      1724      1726      1724      1727      1727      1728      1727      1729
      1727      1730      1730      1731      1730      1732      1730      1733
      1733      1734      1733      1735      1733      1736      1736      1737
      1736      1738      1736      1739      1739      1740      1739      1741
      1739      1742      1743      1747      1743      1751      1743      1755
      1747      1748      1747      1749      1747      1750      1751      1752
      1751      1753      1751      1754      1755      1756      1755      1757
      1755      1758      1743      1744      1744      1745      1744      1746
      1744      1759      1759      1760      1759      1761      1759      1765
      1766      1767      1765      1762      1762      1766      1762      1763
      1762      1764      1767      1768      1767      1769      1767      1770
      1770      1771      1770      1778      1770      1772      1778      1779
      1778      1780      1778      1781      1772      1773      1773      1775
      1773      1774      1775      1776      1775      1777      1775      1787
      1787      1788      1787      1789      1787      1790      1790      1791
      1790      1792      1790      1793      1793      1794      1793      1795
      1793      1796      1796      1797      1796      1798      1796      1799
      1799      1800      1799      1801      1799      1802      1802      1803
      1802      1804      1802      1805      1805      1806      1805      1807
      1807      1808      1807      1809      1809      1810      1809      1811
      1809      1812      1812      1813      1812      1814      1812      1815
      1815      1816      1815      1817      1815      1818      1818      1819
      1818      1820      1818      1821      1821      1822      1821      1823
      1821      1824      1824      1825      1824      1826      1824      1827
      1827      1828      1827      1829      1827      1830      1830      1831
      1830      1832      1830      1833      1781      1782      1782      1784
      1782      1783      1784      1785      1784      1786      1784      1834
      1834      1835      1834      1836      1834      1837      1837      1838
      1837      1839      1837      1840      1840      1841      1840      1842
      1840      1843      1843      1844      1843      1845      1843      1846
      1846      1847      1846      1848      1846      1849      1849      1850
      1849      1851      1849      1852      1852      1853      1852      1854
      1852      1855      1855      1856      1855      1857      1855      1858
      1858      1859      1858      1860      1858      1861      1861      1862
      1861      1863      1861      1864      1864      1865      1864      1866
      1864      1867      1867      1868      1867      1869      1867      1870
      1870      1871      1870      1872      1870      1873      1873      1874
      1873      1875      1873      1876      1877      1881      1877      1885
      1877      1889      1881      1882      1881      1883      1881      1884
      1885      1886      1885      1887      1885      1888      1889      1890
      1889      1891      1889      1892      1877      1878      1878      1879
      1878      1880      1878      1893      1893      1894      1893      1895
      1893      1899      1900      1901      1899      1896      1896      1900
      1896      1897      1896      1898      1901      1902      1901      1903
      1901      1904      1904      1905      1904      1912      1904      1906
      1912      1913      1912      1914      1912      1915      1906      1907
      1907      1909      1907      1908      1909      1910      1909      1911
      1909      1921      1921      1922      1921      1923      1921      1924
      1924      1925      1924      1926      1924      1927      1927      1928
      1927      1929      1927      1930      1930      1931      1930      1932
      1930      1933      1933      1934      1933      1935      1933      1936
      1936      1937      1936      1938      1936      1939      1939      1940
      1939      1941      1941      1942      1941      1943      1943      1944
      1943      1945      1943      1946      1946      1947      1946      1948
      1946      1949      1949      1950      1949      1951      1949      1952
      1952      1953      1952      1954      1952      1955      1955      1956
      1955      1957      1955      1958      1958      1959      1958      1960
      1958      1961      1961      1962      1961      1963      1961      1964
      1964      1965      1964      1966      1964      1967      1915      1916
      1916      1918      1916      1917      1918      1919      1918      1920
      1918      1968      1968      1969      1968      1970      1968      1971
      1971      1972      1971      1973      1971      1974      1974      1975
      1974      1976      1974      1977      1977      1978      1977      1979
      1977      1980      1980      1981      1980      1982      1980      1983
      1983      1984      1983      1985      1983      1986      1986      1987
      1986      1988      1986      1989      1989      1990      1989      1991
      1989      1992      1992      1993      1992      1994      1992      1995
      1995      1996      1995      1997      1995      1998      1998      1999
      1998      2000      1998      2001      2001      2002      2001      2003
      2001      2004      2004      2005      2004      2006      2004      2007
      2007      2008      2007      2009      2007      2010      2011      2015
      2011      2019      2011      2023      2015      2016      2015      2017
      2015      2018      2019      2020      2019      2021      2019      2022
      2023      2024      2023      2025      2023      2026      2011      2012
      2012      2013      2012      2014      2012      2027      2027      2028
      2027      2029      2027      2033      2034      2035      2033      2030
      2030      2034      2030      2031      2030      2032      2035      2036
      2035      2037      2035      2038      2038      2039      2038      2046
      2038      2040      2046      2047      2046      2048      2046      2049
      2040      2041      2041      2043      2041      2042      2043      2044
      2043      2045      2043      2055      2055      2056      2055      2057
      2055      2058      2058      2059      2058      2060      2058      2061
      2061      2062      2061      2063      2061      2064      2064      2065
      2064      2066      2064      2067      2067      2068      2067      2069
      2067      2070      2070      2071      2070      2072      2070      2073
      2073      2074      2073      2075      2075      2076      2075      2077
      2077      2078      2077      2079      2077      2080      2080      2081
      2080      2082      2080      2083      2083      2084      2083      2085
      2083      2086      2086      2087      2086      2088      2086      2089
      2089      2090      2089      2091      2089      2092      2092      2093
      2092      2094      2092      2095      2095      2096      2095      2097
      2095      2098      2098      2099      2098      2100      2098      2101
      2049      2050      2050      2052      2050      2051      2052      2053
      2052      2054      2052      2102      2102      2103      2102      2104
      2102      2105      2105      2106      2105      2107      2105      2108
      2108      2109      2108      2110      2108      2111      2111      2112
      2111      2113      2111      2114      2114      2115      2114      2116
      2114      2117      2117      2118      2117      2119      2117      2120
      2120      2121      2120      2122      2120      2123      2123      2124
      2123      2125      2123      2126      2126      2127      2126      2128
      2126      2129      2129      2130      2129      2131      2129      2132
      2132      2133      2132      2134      2132      2135      2135      2136
      2135      2137      2135      2138      2138      2139      2138      2140
      2138      2141      2141      2142      2141      2143      2141      2144
      2145      2149      2145      2153      2145      2157      2149      2150
      2149      2151      2149      2152      2153      2154      2153      2155
      2153      2156      2157      2158      2157      2159      2157      2160
      2145      2146      2146      2147      2146      2148      2146      2161
      2161      2162      2161      2163      2161      2167      2168      2169
      2167      2164      2164      2168      2164      2165      2164      2166
      2169      2170      2169      2171      2169      2172      2172      2173
      2172      2180      2172      2174      2180      2181      2180      2182
      2180      2183      2174      2175      2175      2177      2175      2176
      2177      2178      2177      2179      2177      2189      2189      2190
      2189      2191      2189      2192      2192      2193      2192      2194
      2192      2195      2195      2196      2195      2197      2195      2198
      2198      2199      2198      2200      2198      2201      2201      2202
      2201      2203      2201      2204      2204      2205      2204      2206
      2204      2207      2207      2208      2207      2209      2209      2210
      2209      2211      2211      2212      2211      2213      2211      2214
      2214      2215      2214      2216      2214      2217      2217      2218
      2217      2219      2217      2220      2220      2221      2220      2222
      2220      2223      2223      2224      2223      2225      2223      2226
      2226      2227      2226      2228      2226      2229      2229      2230
      2229      2231      2229      2232      2232      2233      2232      2234
      2232      2235      2183      2184      2184      2186      2184      2185
      2186      2187      2186      2188      2186      2236      2236      2237
      2236      2238      2236      2239      2239      2240      2239      2241
      2239      2242      2242      2243      2242      2244      2242      2245
      2245      2246      2245      2247      2245      2248      2248      2249
      2248      2250      2248      2251      2251      2252      2251      2253
      2251      2254      2254      2255      2254      2256      2254      2257
      2257      2258      2257      2259      2257      2260      2260      2261
      2260      2262      2260      2263      2263      2264      2263      2265
      2263      2266      2266      2267      2266      2268      2266      2269
      2269      2270      2269      2271      2269      2272      2272      2273
      2272      2274      2272      2275      2275      2276      2275      2277
      2275      2278      2279      2283      2279      2287      2279      2291
      2283      2284      2283      2285      2283      2286      2287      2288
      2287      2289      2287      2290      2291      2292      2291      2293
      2291      2294      2279      2280      2280      2281      2280      2282
      2280      2295      2295      2296      2295      2297      2295      2301
      2302      2303      2301      2298      2298      2302      2298      2299
      2298      2300      2303      2304      2303      2305      2303      2306
      2306      2307      2306      2314      2306      2308      2314      2315
      2314      2316      2314      2317      2308      2309      2309      2311
      2309      2310      2311      2312      2311      2313      2311      2323
      2323      2324      2323      2325      2323      2326      2326      2327
      2326      2328      2326      2329      2329      2330      2329      2331
      2329      2332      2332      2333      2332      2334      2332      2335
      2335      2336      2335      2337      2335      2338      2338      2339
      2338      2340      2338      2341      2341      2342      2341      2343
      2343      2344      2343      2345      2345      2346      2345      2347
      2345      2348      2348      2349      2348      2350      2348      2351
      2351      2352      2351      2353      2351      2354      2354      2355
      2354      2356      2354      2357      2357      2358      2357      2359
      2357      2360      2360      2361      2360      2362      2360      2363
      2363      2364      2363      2365      2363      2366      2366      2367
      2366      2368      2366      2369      2317      2318      2318      2320
      2318      2319      2320      2321      2320      2322      2320      2370
      2370      2371      2370      2372      2370      2373      2373      2374
      2373      2375      2373      2376      2376      2377      2376      2378
      2376      2379      2379      2380      2379      2381      2379      2382
      2382      2383      2382      2384      2382      2385      2385      2386
      2385      2387      2385      2388      2388      2389      2388      2390
      2388      2391      2391      2392      2391      2393      2391      2394
      2394      2395      2394      2396      2394      2397      2397      2398
      2397      2399      2397      2400      2400      2401      2400      2402
      2400      2403      2403      2404      2403      2405      2403      2406
      2406      2407      2406      2408      2406      2409      2409      2410
      2409      2411      2409      2412      2413      2417      2413      2421
      2413      2425      2417      2418      2417      2419      2417      2420
      2421      2422      2421      2423      2421      2424      2425      2426
      2425      2427      2425      2428      2413      2414      2414      2415
      2414      2416      2414      2429      2429      2430      2429      2431
      2429      2435      2436      2437      2435      2432      2432      2436
      2432      2433      2432      2434      2437      2438      2437      2439
      2437      2440      2440      2441      2440      2448      2440      2442
      2448      2449      2448      2450      2448      2451      2442      2443
      2443      2445      2443      2444      2445      2446      2445      2447
      2445      2457      2457      2458      2457      2459      2457      2460
      2460      2461      2460      2462      2460      2463      2463      2464
      2463      2465      2463      2466      2466      2467      2466      2468
      2466      2469      2469      2470      2469      2471      2469      2472
      2472      2473      2472      2474      2472      2475      2475      2476
      2475      2477      2477      2478      2477      2479      2479      2480
      2479      2481      2479      2482      2482      2483      2482      2484
      2482      2485      2485      2486      2485      2487      2485      2488
      2488      2489      2488      2490      2488      2491      2491      2492
      2491      2493      2491      2494      2494      2495      2494      2496
      2494      2497      2497      2498      2497      2499      2497      2500
      2500      2501      2500      2502      2500      2503      2451      2452
      2452      2454      2452      2453      2454      2455      2454      2456
      2454      2504      2504      2505      2504      2506      2504      2507
      2507      2508      2507      2509      2507      2510      2510      2511
      2510      2512      2510      2513      2513      2514      2513      2515
      2513      2516      2516      2517      2516      2518      2516      2519
      2519      2520      2519      2521      2519      2522      2522      2523
      2522      2524      2522      2525      2525      2526      2525      2527
      2525      2528      2528      2529      2528      2530      2528      2531
      2531      2532      2531      2533      2531      2534      2534      2535
      2534      2536      2534      2537      2537      2538      2537      2539
      2537      2540      2540      2541      2540      2542      2540      2543
      2543      2544      2543      2545      2543      2546      2547      2551
      2547      2555      2547      2559      2551      2552      2551      2553
      2551      2554      2555      2556      2555      2557      2555      2558
      2559      2560      2559      2561      2559      2562      2547      2548
      2548      2549      2548      2550      2548      2563      2563      2564
      2563      2565      2563      2569      2570      2571      2569      2566
      2566      2570      2566      2567      2566      2568      2571      2572
      2571      2573      2571      2574      2574      2575      2574      2582
      2574      2576      2582      2583      2582      2584      2582      2585
      2576      2577      2577      2579      2577      2578      2579      2580
      2579      2581      2579      2591      2591      2592      2591      2593
      2591      2594      2594      2595      2594      2596      2594      2597
      2597      2598      2597      2599      2597      2600      2600      2601
      2600      2602      2600      2603      2603      2604      2603      2605
      2603      2606      2606      2607      2606      2608      2606      2609
      2609      2610      2609      2611      2611      2612      2611      2613
      2613      2614      2613      2615      2613      2616      2616      2617
      2616      2618      2616      2619      2619      2620      2619      2621
      2619      2622      2622      2623      2622      2624      2622      2625
      2625      2626      2625      2627      2625      2628      2628      2629
      2628      2630      2628      2631      2631      2632      2631      2633
      2631      2634      2634      2635      2634      2636      2634      2637
      2585      2586      2586      2588      2586      2587      2588      2589
      2588      2590      2588      2638      2638      2639      2638      2640
      2638      2641      2641      2642      2641      2643      2641      2644
      2644      2645      2644      2646      2644      2647      2647      2648
      2647      2649      2647      2650      2650      2651      2650      2652
      2650      2653      2653      2654      2653      2655      2653      2656
      2656      2657      2656      2658      2656      2659      2659      2660
      2659      2661      2659      2662      2662      2663      2662      2664
      2662      2665      2665      2666      2665      2667      2665      2668
      2668      2669      2668      2670      2668      2671      2671      2672
      2671      2673      2671      2674      2674      2675      2674      2676
      2674      2677      2677      2678      2677      2679      2677      2680
      2681      2685      2681      2689      2681      2693      2685      2686
      2685      2687      2685      2688      2689      2690      2689      2691
      2689      2692      2693      2694      2693      2695      2693      2696
      2681      2682      2682      2683      2682      2684      2682      2697
      2697      2698      2697      2699      2697      2703      2704      2705
      2703      2700      2700      2704      2700      2701      2700      2702
      2705      2706      2705      2707      2705      2708      2708      2709
      2708      2716      2708      2710      2716      2717      2716      2718
      2716      2719      2710      2711      2711      2713      2711      2712
      2713      2714      2713      2715      2713      2725      2725      2726
      2725      2727      2725      2728      2728      2729      2728      2730
      2728      2731      2731      2732      2731      2733      2731      2734
      2734      2735      2734      2736      2734      2737      2737      2738
      2737      2739      2737      2740      2740      2741      2740      2742
      2740      2743      2743      2744      2743      2745      2745      2746
      2745      2747      2747      2748      2747      2749      2747      2750
      2750      2751      2750      2752      2750      2753      2753      2754
      2753      2755      2753      2756      2756      2757      2756      2758
      2756      2759      2759      2760      2759      2761      2759      2762
      2762      2763      2762      2764      2762      2765      2765      2766
      2765      2767      2765      2768      2768      2769      2768      2770
      2768      2771      2719      2720      2720      2722      2720      2721
      2722      2723      2722      2724      2722      2772      2772      2773
      2772      2774      2772      2775      2775      2776      2775      2777
      2775      2778      2778      2779      2778      2780      2778      2781
      2781      2782      2781      2783      2781      2784      2784      2785
      2784      2786      2784      2787      2787      2788      2787      2789
      2787      2790      2790      2791      2790      2792      2790      2793
      2793      2794      2793      2795      2793      2796      2796      2797
      2796      2798      2796      2799      2799      2800      2799      2801
      2799      2802      2802      2803      2802      2804      2802      2805
      2805      2806      2805      2807      2805      2808      2808      2809
      2808      2810      2808      2811      2811      2812      2811      2813
      2811      2814      2815      2819      2815      2823      2815      2827
      2819      2820      2819      2821      2819      2822      2823      2824
      2823      2825      2823      2826      2827      2828      2827      2829
      2827      2830      2815      2816      2816      2817      2816      2818
      2816      2831      2831      2832      2831      2833      2831      2837
      2838      2839      2837      2834      2834      2838      2834      2835
      2834      2836      2839      2840      2839      2841      2839      2842
      2842      2843      2842      2850      2842      2844      2850      2851
      2850      2852      2850      2853      2844      2845      2845      2847
      2845      2846      2847      2848      2847      2849      2847      2859
      2859      2860      2859      2861      2859      2862      2862      2863
      2862      2864      2862      2865      2865      2866      2865      2867
      2865      2868      2868      2869      2868      2870      2868      2871
      2871      2872      2871      2873      2871      2874      2874      2875
      2874      2876      2874      2877      2877      2878      2877      2879
      2879      2880      2879      2881      2881      2882      2881      2883
      2881      2884      2884      2885      2884      2886      2884      2887
      2887      2888      2887      2889      2887      2890      2890      2891
      2890      2892      2890      2893      2893      2894      2893      2895
      2893      2896      2896      2897      2896      2898      2896      2899
      2899      2900      2899      2901      2899      2902      2902      2903
      2902      2904      2902      2905      2853      2854      2854      2856
      2854      2855      2856      2857      2856      2858      2856      2906
      2906      2907      2906      2908      2906      2909      2909      2910
      2909      2911      2909      2912      2912      2913      2912      2914
      2912      2915      2915      2916      2915      2917      2915      2918
      2918      2919      2918      2920      2918      2921      2921      2922
      2921      2923      2921      2924      2924      2925      2924      2926
      2924      2927      2927      2928      2927      2929      2927      2930
      2930      2931      2930      2932      2930      2933      2933      2934
      2933      2935      2933      2936      2936      2937      2936      2938
      2936      2939      2939      2940      2939      2941      2939      2942
      2942      2943      2942      2944      2942      2945      2945      2946
      2945      2947      2945      2948      2949      2953      2949      2957
      2949      2961      2953      2954      2953      2955      2953      2956
      2957      2958      2957      2959      2957      2960      2961      2962
      2961      2963      2961      2964      2949      2950      2950      2951
      2950      2952      2950      2965      2965      2966      2965      2967
      2965      2971      2972      2973      2971      2968      2968      2972
      2968      2969      2968      2970      2973      2974      2973      2975
      2973      2976      2976      2977      2976      2984      2976      2978
      2984      2985      2984      2986      2984      2987      2978      2979
      2979      2981      2979      2980      2981      2982      2981      2983
      2981      2993      2993      2994      2993      2995      2993      2996
      2996      2997      2996      2998      2996      2999      2999      3000
      2999      3001      2999      3002      3002      3003      3002      3004
      3002      3005      3005      3006      3005      3007      3005      3008
      3008      3009      3008      3010      3008      3011      3011      3012
      3011      3013      3013      3014      3013      3015      3015      3016
      3015      3017      3015      3018      3018      3019      3018      3020
      3018      3021      3021      3022      3021      3023      3021      3024
      3024      3025      3024      3026      3024      3027      3027      3028
      3027      3029      3027      3030      3030      3031      3030      3032
      3030      3033      3033      3034      3033      3035      3033      3036
      3036      3037      3036      3038      3036      3039      2987      2988
      2988      2990      2988      2989      2990      2991      2990      2992
      2990      3040      3040      3041      3040      3042      3040      3043
      3043      3044      3043      3045      3043      3046      3046      3047
      3046      3048      3046      3049      3049      3050      3049      3051
      3049      3052      3052      3053      3052      3054      3052      3055
      3055      3056      3055      3057      3055      3058      3058      3059
      3058      3060      3058      3061      3061      3062      3061      3063
      3061      3064      3064      3065      3064      3066      3064      3067
      3067      3068      3067      3069      3067      3070      3070      3071
      3070      3072      3070      3073      3073      3074      3073      3075
      3073      3076      3076      3077      3076      3078      3076      3079
      3079      3080      3079      3081      3079      3082      3083      3087
      3083      3091      3083      3095      3087      3088      3087      3089
      3087      3090      3091      3092      3091      3093      3091      3094
      3095      3096      3095      3097      3095      3098      3083      3084
      3084      3085      3084      3086      3084      3099      3099      3100
      3099      3101      3099      3105      3106      3107      3105      3102
      3102      3106      3102      3103      3102      3104      3107      3108
      3107      3109      3107      3110      3110      3111      3110      3118
      3110      3112      3118      3119      3118      3120      3118      3121
      3112      3113      3113      3115      3113      3114      3115      3116
      3115      3117      3115      3127      3127      3128      3127      3129
      3127      3130      3130      3131      3130      3132      3130      3133
      3133      3134      3133      3135      3133      3136      3136      3137
      3136      3138      3136      3139      3139      3140      3139      3141
      3139      3142      3142      3143      3142      3144      3142      3145
      3145      3146      3145      3147      3147      3148      3147      3149
      3149      3150      3149      3151      3149      3152      3152      3153
      3152      3154      3152      3155      3155      3156      3155      3157
      3155      3158      3158      3159      3158      3160      3158      3161
      3161      3162      3161      3163      3161      3164      3164      3165
      3164      3166      3164      3167      3167      3168      3167      3169
      3167      3170      3170      3171      3170      3172      3170      3173
      3121      3122      3122      3124      3122      3123      3124      3125
      3124      3126      3124      3174      3174      3175      3174      3176
      3174      3177      3177      3178      3177      3179      3177      3180
      3180      3181      3180      3182      3180      3183      3183      3184
      3183      3185      3183      3186      3186      3187      3186      3188
      3186      3189      3189      3190      3189      3191      3189      3192
      3192      3193      3192      3194      3192      3195      3195      3196
      3195      3197      3195      3198      3198      3199      3198      3200
      3198      3201      3201      3202      3201      3203      3201      3204
      3204      3205      3204      3206      3204      3207      3207      3208
      3207      3209      3207      3210      3210      3211      3210      3212
      3210      3213      3213      3214      3213      3215      3213      3216
      3217      3221      3217      3225      3217      3229      3221      3222
      3221      3223      3221      3224      3225      3226      3225      3227
      3225      3228      3229      3230      3229      3231      3229      3232
      3217      3218      3218      3219      3218      3220      3218      3233
      3233      3234      3233      3235      3233      3239      3240      3241
      3239      3236      3236      3240      3236      3237      3236      3238
      3241      3242      3241      3243      3241      3244      3244      3245
      3244      3252      3244      3246      3252      3253      3252      3254
      3252      3255      3246      3247      3247      3249      3247      3248
      3249      3250      3249      3251      3249      3261      3261      3262
      3261      3263      3261      3264      3264      3265      3264      3266
      3264      3267      3267      3268      3267      3269      3267      3270
      3270      3271      3270      3272      3270      3273      3273      3274
      3273      3275      3273      3276      3276      3277      3276      3278
      3276      3279      3279      3280      3279      3281      3281      3282
      3281      3283      3283      3284      3283      3285      3283      3286
      3286      3287      3286      3288      3286      3289      3289      3290
      3289      3291      3289      3292      3292      3293      3292      3294
      3292      3295      3295      3296      3295      3297      3295      3298
      3298      3299      3298      3300      3298      3301      3301      3302
      3301      3303      3301      3304      3304      3305      3304      3306
      3304      3307      3255      3256      3256      3258      3256      3257
      3258      3259      3258      3260      3258      3308      3308      3309
      3308      3310      3308      3311      3311      3312      3311      3313
      3311      3314      3314      3315      3314      3316      3314      3317
      3317      3318      3317      3319      3317      3320      3320      3321
      3320      3322      3320      3323      3323      3324      3323      3325
      3323      3326      3326      3327      3326      3328      3326      3329
      3329      3330      3329      3331      3329      3332      3332      3333
      3332      3334      3332      3335      3335      3336      3335      3337
      3335      3338      3338      3339      3338      3340      3338      3341
      3341      3342      3341      3343      3341      3344      3344      3345
      3344      3346      3344      3347      3347      3348      3347      3349
      3347      3350      3351      3355      3351      3359      3351      3363
      3355      3356      3355      3357      3355      3358      3359      3360
      3359      3361      3359      3362      3363      3364      3363      3365
      3363      3366      3351      3352      3352      3353      3352      3354
      3352      3367      3367      3368      3367      3369      3367      3373
      3374      3375      3373      3370      3370      3374      3370      3371
      3370      3372      3375      3376      3375      3377      3375      3378
      3378      3379      3378      3386      3378      3380      3386      3387
      3386      3388      3386      3389      3380      3381      3381      3383
      3381      3382      3383      3384      3383      3385      3383      3395
      3395      3396      3395      3397      3395      3398      3398      3399
      3398      3400      3398      3401      3401      3402      3401      3403
      3401      3404      3404      3405      3404      3406      3404      3407
      3407      3408      3407      3409      3407      3410      3410      3411
      3410      3412      3410      3413      3413      3414      3413      3415
      3415      3416      3415      3417      3417      3418      3417      3419
      3417      3420      3420      3421      3420      3422      3420      3423
      3423      3424      3423      3425      3423      3426      3426      3427
      3426      3428      3426      3429      3429      3430      3429      3431
      3429      3432      3432      3433      3432      3434      3432      3435
      3435      3436      3435      3437      3435      3438      3438      3439
      3438      3440      3438      3441      3389      3390      3390      3392
      3390      3391      3392      3393      3392      3394      3392      3442
      3442      3443      3442      3444      3442      3445      3445      3446
      3445      3447      3445      3448      3448      3449      3448      3450
      3448      3451      3451      3452      3451      3453      3451      3454
      3454      3455      3454      3456      3454      3457      3457      3458
      3457      3459      3457      3460      3460      3461      3460      3462
      3460      3463      3463      3464      3463      3465      3463      3466
      3466      3467      3466      3468      3466      3469      3469      3470
      3469      3471      3469      3472      3472      3473      3472      3474
      3472      3475      3475      3476      3475      3477      3475      3478
      3478      3479      3478      3480      3478      3481      3481      3482
      3481      3483      3481      3484      3485      3489      3485      3493
      3485      3497      3489      3490      3489      3491      3489      3492
      3493      3494      3493      3495      3493      3496      3497      3498
      3497      3499      3497      3500      3485      3486      3486      3487
      3486      3488      3486      3501      3501      3502      3501      3503
      3501      3507      3508      3509      3507      3504      3504      3508
      3504      3505      3504      3506      3509      3510      3509      3511
      3509      3512      3512      3513      3512      3520      3512      3514
      3520      3521      3520      3522      3520      3523      3514      3515
      3515      3517      3515      3516      3517      3518      3517      3519
      3517      3529      3529      3530      3529      3531      3529      3532
      3532      3533      3532      3534      3532      3535      3535      3536
      3535      3537      3535      3538      3538      3539      3538      3540
      3538      3541      3541      3542      3541      3543      3541      3544
      3544      3545      3544      3546      3544      3547      3547      3548
      3547      3549      3549      3550      3549      3551      3551      3552
      3551      3553      3551      3554      3554      3555      3554      3556
      3554      3557      3557      3558      3557      3559      3557      3560
      3560      3561      3560      3562      3560      3563      3563      3564
      3563      3565      3563      3566      3566      3567      3566      3568
      3566      3569      3569      3570      3569      3571      3569      3572
      3572      3573      3572      3574      3572      3575      3523      3524
      3524      3526      3524      3525      3526      3527      3526      3528
      3526      3576      3576      3577      3576      3578      3576      3579
      3579      3580      3579      3581      3579      3582      3582      3583
      3582      3584      3582      3585      3585      3586      3585      3587
      3585      3588      3588      3589      3588      3590      3588      3591
      3591      3592      3591      3593      3591      3594      3594      3595
      3594      3596      3594      3597      3597      3598      3597      3599
      3597      3600      3600      3601      3600      3602      3600      3603
      3603      3604      3603      3605      3603      3606      3606      3607
      3606      3608      3606      3609      3609      3610      3609      3611
      3609      3612      3612      3613      3612      3614      3612      3615
      3615      3616      3615      3617      3615      3618      3619      3623
      3619      3627      3619      3631      3623      3624      3623      3625
      3623      3626      3627      3628      3627      3629      3627      3630
      3631      3632      3631      3633      3631      3634      3619      3620
      3620      3621      3620      3622      3620      3635      3635      3636
      3635      3637      3635      3641      3642      3643      3641      3638
      3638      3642      3638      3639      3638      3640      3643      3644
      3643      3645      3643      3646      3646      3647      3646      3654
      3646      3648      3654      3655      3654      3656      3654      3657
      3648      3649      3649      3651      3649      3650      3651      3652
      3651      3653      3651      3663      3663      3664      3663      3665
      3663      3666      3666      3667      3666      3668      3666      3669
      3669      3670      3669      3671      3669      3672      3672      3673
      3672      3674      3672      3675      3675      3676      3675      3677
      3675      3678      3678      3679      3678      3680      3678      3681
      3681      3682      3681      3683      3683      3684      3683      3685
      3685      3686      3685      3687      3685      3688      3688      3689
      3688      3690      3688      3691      3691      3692      3691      3693
      3691      3694      3694      3695      3694      3696      3694      3697
      3697      3698      3697      3699      3697      3700      3700      3701
      3700      3702      3700      3703      3703      3704      3703      3705
      3703      3706      3706      3707      3706      3708      3706      3709
      3657      3658      3658      3660      3658      3659      3660      3661
      3660      3662      3660      3710      3710      3711      3710      3712
      3710      3713      3713      3714      3713      3715      3713      3716
      3716      3717      3716      3718      3716      3719      3719      3720
      3719      3721      3719      3722      3722      3723      3722      3724
      3722      3725      3725      3726      3725      3727      3725      3728
      3728      3729      3728      3730      3728      3731      3731      3732
      3731      3733      3731      3734      3734      3735      3734      3736
      3734      3737      3737      3738      3737      3739      3737      3740
      3740      3741      3740      3742      3740      3743      3743      3744
      3743      3745      3743      3746      3746      3747      3746      3748
      3746      3749      3749      3750      3749      3751      3749      3752
      3753      3757      3753      3761      3753      3765      3757      3758
      3757      3759      3757      3760      3761      3762      3761      3763
      3761      3764      3765      3766      3765      3767      3765      3768
      3753      3754      3754      3755      3754      3756      3754      3769
      3769      3770      3769      3771      3769      3775      3776      3777
      3775      3772      3772      3776      3772      3773      3772      3774
      3777      3778      3777      3779      3777      3780      3780      3781
      3780      3788      3780      3782      3788      3789      3788      3790
      3788      3791      3782      3783      3783      3785      3783      3784
      3785      3786      3785      3787      3785      3797      3797      3798
      3797      3799      3797      3800      3800      3801      3800      3802
      3800      3803      3803      3804      3803      3805      3803      3806
      3806      3807      3806      3808      3806      3809      3809      3810
      3809      3811      3809      3812      3812      3813      3812      3814
      3812      3815      3815      3816      3815      3817      3817      3818
      3817      3819      3819      3820      3819      3821      3819      3822
      3822      3823      3822      3824      3822      3825      3825      3826
      3825      3827      3825      3828      3828      3829      3828      3830
      3828      3831      3831      3832      3831      3833      3831      3834
      3834      3835      3834      3836      3834      3837      3837      3838
      3837      3839      3837      3840      3840      3841      3840      3842
      3840      3843      3791      3792      3792      3794      3792      3793
      3794      3795      3794      3796      3794      3844      3844      3845
      3844      3846      3844      3847      3847      3848      3847      3849
      3847      3850      3850      3851      3850      3852      3850      3853
      3853      3854      3853      3855      3853      3856      3856      3857
      3856      3858      3856      3859      3859      3860      3859      3861
      3859      3862      3862      3863      3862      3864      3862      3865
      3865      3866      3865      3867      3865      3868      3868      3869
      3868      3870      3868      3871      3871      3872      3871      3873
      3871      3874      3874      3875      3874      3876      3874      3877
      3877      3878      3877      3879      3877      3880      3880      3881
      3880      3882      3880      3883      3883      3884      3883      3885
      3883      3886      3887      3891      3887      3895      3887      3899
      3891      3892      3891      3893      3891      3894      3895      3896
      3895      3897      3895      3898      3899      3900      3899      3901
      3899      3902      3887      3888      3888      3889      3888      3890
      3888      3903      3903      3904      3903      3905      3903      3909
      3910      3911      3909      3906      3906      3910      3906      3907
      3906      3908      3911      3912      3911      3913      3911      3914
      3914      3915      3914      3922      3914      3916      3922      3923
      3922      3924      3922      3925      3916      3917      3917      3919
      3917      3918      3919      3920      3919      3921      3919      3931
      3931      3932      3931      3933      3931      3934      3934      3935
      3934      3936      3934      3937      3937      3938      3937      3939
      3937      3940      3940      3941      3940      3942      3940      3943
      3943      3944      3943      3945      3943      3946      3946      3947
      3946      3948      3946      3949      3949      3950      3949      3951
      3951      3952      3951      3953      3953      3954      3953      3955
      3953      3956      3956      3957      3956      3958      3956      3959
      3959      3960      3959      3961      3959      3962      3962      3963
      3962      3964      3962      3965      3965      3966      3965      3967
      3965      3968      3968      3969      3968      3970      3968      3971
      3971      3972      3971      3973      3971      3974      3974      3975
      3974      3976      3974      3977      3925      3926      3926      3928
      3926      3927      3928      3929      3928      3930      3928      3978
      3978      3979      3978      3980      3978      3981      3981      3982
      3981      3983      3981      3984      3984      3985      3984      3986
      3984      3987      3987      3988      3987      3989      3987      3990
      3990      3991      3990      3992      3990      3993      3993      3994
      3993      3995      3993      3996      3996      3997      3996      3998
      3996      3999      3999      4000      3999      4001      3999      4002
      4002      4003      4002      4004      4002      4005      4005      4006
      4005      4007      4005      4008      4008      4009      4008      4010
      4008      4011      4011      4012      4011      4013      4011      4014
      4014      4015      4014      4016      4014      4017      4017      4018
      4017      4019      4017      4020      4021      4025      4021      4029
      4021      4033      4025      4026      4025      4027      4025      4028
      4029      4030      4029      4031      4029      4032      4033      4034
      4033      4035      4033      4036      4021      4022      4022      4023
      4022      4024      4022      4037      4037      4038      4037      4039
      4037      4043      4044      4045      4043      4040      4040      4044
      4040      4041      4040      4042      4045      4046      4045      4047
      4045      4048      4048      4049      4048      4056      4048      4050
      4056      4057      4056      4058      4056      4059      4050      4051
      4051      4053      4051      4052      4053      4054      4053      4055
      4053      4065      4065      4066      4065      4067      4065      4068
      4068      4069      4068      4070      4068      4071      4071      4072
      4071      4073      4071      4074      4074      4075      4074      4076
      4074      4077      4077      4078      4077      4079      4077      4080
      4080      4081      4080      4082      4080      4083      4083      4084
      4083      4085      4085      4086      4085      4087      4087      4088
      4087      4089      4087      4090      4090      4091      4090      4092
      4090      4093      4093      4094      4093      4095      4093      4096
      4096      4097      4096      4098      4096      4099      4099      4100
      4099      4101      4099      4102      4102      4103      4102      4104
      4102      4105      4105      4106      4105      4107      4105      4108
      4108      4109      4108      4110      4108      4111      4059      4060
      4060      4062      4060      4061      4062      4063      4062      4064
      4062      4112      4112      4113      4112      4114      4112      4115
      4115      4116      4115      4117      4115      4118      4118      4119
      4118      4120      4118      4121      4121      4122      4121      4123
      4121      4124      4124      4125      4124      4126      4124      4127
      4127      4128      4127      4129      4127      4130      4130      4131
      4130      4132      4130      4133      4133      4134      4133      4135
      4133      4136      4136      4137      4136      4138      4136      4139
      4139      4140      4139      4141      4139      4142      4142      4143
      4142      4144      4142      4145      4145      4146      4145      4147
      4145      4148      4148      4149      4148      4150      4148      4151
      4151      4152      4151      4153      4151      4154      4155      4159
      4155      4163      4155      4167      4159      4160      4159      4161
      4159      4162      4163      4164      4163      4165      4163      4166
      4167      4168      4167      4169      4167      4170      4155      4156
      4156      4157      4156      4158      4156      4171      4171      4172
      4171      4173      4171      4177      4178      4179      4177      4174
      4174      4178      4174      4175      4174      4176      4179      4180
      4179      4181      4179      4182      4182      4183      4182      4190
      4182      4184      4190      4191      4190      4192      4190      4193
      4184      4185      4185      4187      4185      4186      4187      4188
      4187      4189      4187      4199      4199      4200      4199      4201
      4199      4202      4202      4203      4202      4204      4202      4205
      4205      4206      4205      4207      4205      4208      4208      4209
      4208      4210      4208      4211      4211      4212      4211      4213
      4211      4214      4214      4215      4214      4216      4214      4217
      4217      4218      4217      4219      4219      4220      4219      4221
      4221      4222      4221      4223      4221      4224      4224      4225
      4224      4226      4224      4227      4227      4228      4227      4229
      4227      4230      4230      4231      4230      4232      4230      4233
      4233      4234      4233      4235      4233      4236      4236      4237
      4236      4238      4236      4239      4239      4240      4239      4241
      4239      4242      4242      4243      4242      4244      4242      4245
      4193      4194      4194      4196      4194      4195      4196      4197
      4196      4198      4196      4246      4246      4247      4246      4248
      4246      4249      4249      4250      4249      4251      4249      4252
      4252      4253      4252      4254      4252      4255      4255      4256
      4255      4257      4255      4258      4258      4259      4258      4260
      4258      4261      4261      4262      4261      4263      4261      4264
      4264      4265      4264      4266      4264      4267      4267      4268
      4267      4269      4267      4270      4270      4271      4270      4272
      4270      4273      4273      4274      4273      4275      4273      4276
      4276      4277      4276      4278      4276      4279      4279      4280
      4279      4281      4279      4282      4282      4283      4282      4284
      4282      4285      4285      4286      4285      4287      4285      4288
      4289      4293      4289      4297      4289      4301      4293      4294
      4293      4295      4293      4296      4297      4298      4297      4299
      4297      4300      4301      4302      4301      4303      4301      4304
      4289      4290      4290      4291      4290      4292      4290      4305
      4305      4306      4305      4307      4305      4311      4312      4313
      4311      4308      4308      4312      4308      4309      4308      4310
      4313      4314      4313      4315      4313      4316      4316      4317
      4316      4324      4316      4318      4324      4325      4324      4326
      4324      4327      4318      4319      4319      4321      4319      4320
      4321      4322      4321      4323      4321      4333      4333      4334
      4333      4335      4333      4336      4336      4337      4336      4338
      4336      4339      4339      4340      4339      4341      4339      4342
      4342      4343      4342      4344      4342      4345      4345      4346
      4345      4347      4345      4348      4348      4349      4348      4350
      4348      4351      4351      4352      4351      4353      4353      4354
      4353      4355      4355      4356      4355      4357      4355      4358
      4358      4359      4358      4360      4358      4361      4361      4362
      4361      4363      4361      4364      4364      4365      4364      4366
      4364      4367      4367      4368      4367      4369      4367      4370
      4370      4371      4370      4372      4370      4373      4373      4374
      4373      4375      4373      4376      4376      4377      4376      4378
      4376      4379      4327      4328      4328      4330      4328      4329
      4330      4331      4330      4332      4330      4380      4380      4381
      4380      4382      4380      4383      4383      4384      4383      4385
      4383      4386      4386      4387      4386      4388      4386      4389
      4389      4390      4389      4391      4389      4392      4392      4393
      4392      4394      4392      4395      4395      4396      4395      4397
      4395      4398      4398      4399      4398      4400      4398      4401
      4401      4402      4401      4403      4401      4404      4404      4405
      4404      4406      4404      4407      4407      4408      4407      4409
      4407      4410      4410      4411      4410      4412      4410      4413
      4413      4414      4413      4415      4413      4416      4416      4417
      4416      4418      4416      4419      4419      4420      4419      4421
      4419      4422      4423      4427      4423      4431      4423      4435
      4427      4428      4427      4429      4427      4430      4431      4432
      4431      4433      4431      4434      4435      4436      4435      4437
      4435      4438      4423      4424      4424      4425      4424      4426
      4424      4439      4439      4440      4439      4441      4439      4445
      4446      4447      4445      4442      4442      4446      4442      4443
      4442      4444      4447      4448      4447      4449      4447      4450
      4450      4451      4450      4458      4450      4452      4458      4459
      4458      4460      4458      4461      4452      4453      4453      4455
      4453      4454      4455      4456      4455      4457      4455      4467
      4467      4468      4467      4469      4467      4470      4470      4471
      4470      4472      4470      4473      4473      4474      4473      4475
      4473      4476      4476      4477      4476      4478      4476      4479
      4479      4480      4479      4481      4479      4482      4482      4483
      4482      4484      4482      4485      4485      4486      4485      4487
      4487      4488      4487      4489      4489      4490      4489      4491
      4489      4492      4492      4493      4492      4494      4492      4495
      4495      4496      4495      4497      4495      4498      4498      4499
      4498      4500      4498      4501      4501      4502      4501      4503
      4501      4504      4504      4505      4504      4506      4504      4507
      4507      4508      4507      4509      4507      4510      4510      4511
      4510      4512      4510      4513      4461      4462      4462      4464
      4462      4463      4464      4465      4464      4466      4464      4514
      4514      4515      4514      4516      4514      4517      4517      4518
      4517      4519      4517      4520      4520      4521      4520      4522
      4520      4523      4523      4524      4523      4525      4523      4526
      4526      4527      4526      4528      4526      4529      4529      4530
      4529      4531      4529      4532      4532      4533      4532      4534
      4532      4535      4535      4536      4535      4537      4535      4538
      4538      4539      4538      4540      4538      4541      4541      4542
      4541      4543      4541      4544      4544      4545      4544      4546
      4544      4547      4547      4548      4547      4549      4547      4550
      4550      4551      4550      4552      4550      4553      4553      4554
      4553      4555      4553      4556      4557      4561      4557      4565
      4557      4569      4561      4562      4561      4563      4561      4564
      4565      4566      4565      4567      4565      4568      4569      4570
      4569      4571      4569      4572      4557      4558      4558      4559
      4558      4560      4558      4573      4573      4574      4573      4575
      4573      4579      4580      4581      4579      4576      4576      4580
      4576      4577      4576      4578      4581      4582      4581      4583
      4581      4584      4584      4585      4584      4592      4584      4586
      4592      4593      4592      4594      4592      4595      4586      4587
      4587      4589      4587      4588      4589      4590      4589      4591
      4589      4601      4601      4602      4601      4603      4601      4604
      4604      4605      4604      4606      4604      4607      4607      4608
      4607      4609      4607      4610      4610      4611      4610      4612
      4610      4613      4613      4614      4613      4615      4613      4616
      4616      4617      4616      4618      4616      4619      4619      4620
      4619      4621      4621      4622      4621      4623      4623      4624
      4623      4625      4623      4626      4626      4627      4626      4628
      4626      4629      4629      4630      4629      4631      4629      4632
      4632      4633      4632      4634      4632      4635      4635      4636
      4635      4637      4635      4638      4638      4639      4638      4640
      4638      4641      4641      4642      4641      4643      4641      4644
      4644      4645      4644      4646      4644      4647      4595      4596
      4596      4598      4596      4597      4598      4599      4598      4600
      4598      4648      4648      4649      4648      4650      4648      4651
      4651      4652      4651      4653      4651      4654      4654      4655
      4654      4656      4654      4657      4657      4658      4657      4659
      4657      4660      4660      4661      4660      4662      4660      4663
      4663      4664      4663      4665      4663      4666      4666      4667
      4666      4668      4666      4669      4669      4670      4669      4671
      4669      4672      4672      4673      4672      4674      4672      4675
      4675      4676      4675      4677      4675      4678      4678      4679
      4678      4680      4678      4681      4681      4682      4681      4683
      4681      4684      4684      4685      4684      4686      4684      4687
      4687      4688      4687      4689      4687      4690      4691      4695
      4691      4699      4691      4703      4695      4696      4695      4697
      4695      4698      4699      4700      4699      4701      4699      4702
      4703      4704      4703      4705      4703      4706      4691      4692
      4692      4693      4692      4694      4692      4707      4707      4708
      4707      4709      4707      4713      4714      4715      4713      4710
      4710      4714      4710      4711      4710      4712      4715      4716
      4715      4717      4715      4718      4718      4719      4718      4726
      4718      4720      4726      4727      4726      4728      4726      4729
      4720      4721      4721      4723      4721      4722      4723      4724
      4723      4725      4723      4735      4735      4736      4735      4737
      4735      4738      4738      4739      4738      4740      4738      4741
      4741      4742      4741      4743      4741      4744      4744      4745
      4744      4746      4744      4747      4747      4748      4747      4749
      4747      4750      4750      4751      4750      4752      4750      4753
      4753      4754      4753      4755      4755      4756      4755      4757
      4757      4758      4757      4759      4757      4760      4760      4761
      4760      4762      4760      4763      4763      4764      4763      4765
      4763      4766      4766      4767      4766      4768      4766      4769
      4769      4770      4769      4771      4769      4772      4772      4773
      4772      4774      4772      4775      4775      4776      4775      4777
      4775      4778      4778      4779      4778      4780      4778      4781
      4729      4730      4730      4732      4730      4731      4732      4733
      4732      4734      4732      4782      4782      4783      4782      4784
      4782      4785      4785      4786      4785      4787      4785      4788
      4788      4789      4788      4790      4788      4791      4791      4792
      4791      4793      4791      4794      4794      4795      4794      4796
      4794      4797      4797      4798      4797      4799      4797      4800
      4800      4801      4800      4802      4800      4803      4803      4804
      4803      4805      4803      4806      4806      4807      4806      4808
      4806      4809      4809      4810      4809      4811      4809      4812
      4812      4813      4812      4814      4812      4815      4815      4816
      4815      4817      4815      4818      4818      4819      4818      4820
      4818      4821      4821      4822      4821      4823      4821      4824
      4825      4829      4825      4833      4825      4837      4829      4830
      4829      4831      4829      4832      4833      4834      4833      4835
      4833      4836      4837      4838      4837      4839      4837      4840
      4825      4826      4826      4827      4826      4828      4826      4841
      4841      4842      4841      4843      4841      4847      4848      4849
      4847      4844      4844      4848      4844      4845      4844      4846
      4849      4850      4849      4851      4849      4852      4852      4853
      4852      4860      4852      4854      4860      4861      4860      4862
      4860      4863      4854      4855      4855      4857      4855      4856
      4857      4858      4857      4859      4857      4869      4869      4870
      4869      4871      4869      4872      4872      4873      4872      4874
      4872      4875      4875      4876      4875      4877      4875      4878
      4878      4879      4878      4880      4878      4881      4881      4882
      4881      4883      4881      4884      4884      4885      4884      4886
      4884      4887      4887      4888      4887      4889      4889      4890
      4889      4891      4891      4892      4891      4893      4891      4894
      4894      4895      4894      4896      4894      4897      4897      4898
      4897      4899      4897      4900      4900      4901      4900      4902
      4900      4903      4903      4904      4903      4905      4903      4906
      4906      4907      4906      4908      4906      4909      4909      4910
      4909      4911      4909      4912      4912      4913      4912      4914
      4912      4915      4863      4864      4864      4866      4864      4865
      4866      4867      4866      4868      4866      4916      4916      4917
      4916      4918      4916      4919      4919      4920      4919      4921
      4919      4922      4922      4923      4922      4924      4922      4925
      4925      4926      4925      4927      4925      4928      4928      4929
      4928      4930      4928      4931      4931      4932      4931      4933
      4931      4934      4934      4935      4934      4936      4934      4937
      4937      4938      4937      4939      4937      4940      4940      4941
      4940      4942      4940      4943      4943      4944      4943      4945
      4943      4946      4946      4947      4946      4948      4946      4949
      4949      4950      4949      4951      4949      4952      4952      4953
      4952      4954      4952      4955      4955      4956      4955      4957
      4955      4958      4959      4963      4959      4967      4959      4971
      4963      4964      4963      4965      4963      4966      4967      4968
      4967      4969      4967      4970      4971      4972      4971      4973
      4971      4974      4959      4960      4960      4961      4960      4962
      4960      4975      4975      4976      4975      4977      4975      4981
      4982      4983      4981      4978      4978      4982      4978      4979
      4978      4980      4983      4984      4983      4985      4983      4986
      4986      4987      4986      4994      4986      4988      4994      4995
      4994      4996      4994      4997      4988      4989      4989      4991
      4989      4990      4991      4992      4991      4993      4991      5003
      5003      5004      5003      5005      5003      5006      5006      5007
      5006      5008      5006      5009      5009      5010      5009      5011
      5009      5012      5012      5013      5012      5014      5012      5015
      5015      5016      5015      5017      5015      5018      5018      5019
      5018      5020      5018      5021      5021      5022      5021      5023
      5023      5024      5023      5025      5025      5026      5025      5027
      5025      5028      5028      5029      5028      5030      5028      5031
      5031      5032      5031      5033      5031      5034      5034      5035
      5034      5036      5034      5037      5037      5038      5037      5039
      5037      5040      5040      5041      5040      5042      5040      5043
      5043      5044      5043      5045      5043      5046      5046      5047
      5046      5048      5046      5049      4997      4998      4998      5000
      4998      4999      5000      5001      5000      5002      5000      5050
      5050      5051      5050      5052      5050      5053      5053      5054
      5053      5055      5053      5056      5056      5057      5056      5058
      5056      5059      5059      5060      5059      5061      5059      5062
      5062      5063      5062      5064      5062      5065      5065      5066
      5065      5067      5065      5068      5068      5069      5068      5070
      5068      5071      5071      5072      5071      5073      5071      5074
      5074      5075      5074      5076      5074      5077      5077      5078
      5077      5079      5077      5080      5080      5081      5080      5082
      5080      5083      5083      5084      5083      5085      5083      5086
      5086      5087      5086      5088      5086      5089      5089      5090
      5089      5091      5089      5092      5093      5097      5093      5101
      5093      5105      5097      5098      5097      5099      5097      5100
      5101      5102      5101      5103      5101      5104      5105      5106
      5105      5107      5105      5108      5093      5094      5094      5095
      5094      5096      5094      5109      5109      5110      5109      5111
      5109      5115      5116      5117      5115      5112      5112      5116
      5112      5113      5112      5114      5117      5118      5117      5119
      5117      5120      5120      5121      5120      5128      5120      5122
      5128      5129      5128      5130      5128      5131      5122      5123
      5123      5125      5123      5124      5125      5126      5125      5127
      5125      5137      5137      5138      5137      5139      5137      5140
      5140      5141      5140      5142      5140      5143      5143      5144
      5143      5145      5143      5146      5146      5147      5146      5148
      5146      5149      5149      5150      5149      5151      5149      5152
      5152      5153      5152      5154      5152      5155      5155      5156
      5155      5157      5157      5158      5157      5159      5159      5160
      5159      5161      5159      5162      5162      5163      5162      5164
      5162      5165      5165      5166      5165      5167      5165      5168
      5168      5169      5168      5170      5168      5171      5171      5172
      5171      5173      5171      5174      5174      5175      5174      5176
      5174      5177      5177      5178      5177      5179      5177      5180
      5180      5181      5180      5182      5180      5183      5131      5132
      5132      5134      5132      5133      5134      5135      5134      5136
      5134      5184      5184      5185      5184      5186      5184      5187
      5187      5188      5187      5189      5187      5190      5190      5191
      5190      5192      5190      5193      5193      5194      5193      5195
      5193      5196      5196      5197      5196      5198      5196      5199
      5199      5200      5199      5201      5199      5202      5202      5203
      5202      5204      5202      5205      5205      5206      5205      5207
      5205      5208      5208      5209      5208      5210      5208      5211
      5211      5212      5211      5213      5211      5214      5214      5215
      5214      5216      5214      5217      5217      5218      5217      5219
      5217      5220      5220      5221      5220      5222      5220      5223
      5223      5224      5223      5225      5223      5226      5227      5231
      5227      5235      5227      5239      5231      5232      5231      5233
      5231      5234      5235      5236      5235      5237      5235      5238
      5239      5240      5239      5241      5239      5242      5227      5228
      5228      5229      5228      5230      5228      5243      5243      5244
      5243      5245      5243      5249      5250      5251      5249      5246
      5246      5250      5246      5247      5246      5248      5251      5252
      5251      5253      5251      5254      5254      5255      5254      5262
      5254      5256      5262      5263      5262      5264      5262      5265
      5256      5257      5257      5259      5257      5258      5259      5260
      5259      5261      5259      5271      5271      5272      5271      5273
      5271      5274      5274      5275      5274      5276      5274      5277
      5277      5278      5277      5279      5277      5280      5280      5281
      5280      5282      5280      5283      5283      5284      5283      5285
      5283      5286      5286      5287      5286      5288      5286      5289
      5289      5290      5289      5291      5291      5292      5291      5293
      5293      5294      5293      5295      5293      5296      5296      5297
      5296      5298      5296      5299      5299      5300      5299      5301
      5299      5302      5302      5303      5302      5304      5302      5305
      5305      5306      5305      5307      5305      5308      5308      5309
      5308      5310      5308      5311      5311      5312      5311      5313
      5311      5314      5314      5315      5314      5316      5314      5317
      5265      5266      5266      5268      5266      5267      5268      5269
      5268      5270      5268      5318      5318      5319      5318      5320
      5318      5321      5321      5322      5321      5323      5321      5324
      5324      5325      5324      5326      5324      5327      5327      5328
      5327      5329      5327      5330      5330      5331      5330      5332
      5330      5333      5333      5334      5333      5335      5333      5336
      5336      5337      5336      5338      5336      5339      5339      5340
      5339      5341      5339      5342      5342      5343      5342      5344
      5342      5345      5345      5346      5345      5347      5345      5348
      5348      5349      5348      5350      5348      5351      5351      5352
      5351      5353      5351      5354      5354      5355      5354      5356
      5354      5357      5357      5358      5357      5359      5357      5360
      5361      5365      5361      5369      5361      5373      5365      5366
      5365      5367      5365      5368      5369      5370      5369      5371
      5369      5372      5373      5374      5373      5375      5373      5376
      5361      5362      5362      5363      5362      5364      5362      5377
      5377      5378      5377      5379      5377      5383      5384      5385
      5383      5380      5380      5384      5380      5381      5380      5382
      5385      5386      5385      5387      5385      5388      5388      5389
      5388      5396      5388      5390      5396      5397      5396      5398
      5396      5399      5390      5391      5391      5393      5391      5392
      5393      5394      5393      5395      5393      5405      5405      5406
      5405      5407      5405      5408      5408      5409      5408      5410
      5408      5411      5411      5412      5411      5413      5411      5414
      5414      5415      5414      5416      5414      5417      5417      5418
      5417      5419      5417      5420      5420      5421      5420      5422
      5420      5423      5423      5424      5423      5425      5425      5426
      5425      5427      5427      5428      5427      5429      5427      5430
      5430      5431      5430      5432      5430      5433      5433      5434
      5433      5435      5433      5436      5436      5437      5436      5438
      5436      5439      5439      5440      5439      5441      5439      5442
      5442      5443      5442      5444      5442      5445      5445      5446
      5445      5447      5445      5448      5448      5449      5448      5450
      5448      5451      5399      5400      5400      5402      5400      5401
      5402      5403      5402      5404      5402      5452      5452      5453
      5452      5454      5452      5455      5455      5456      5455      5457
      5455      5458      5458      5459      5458      5460      5458      5461
      5461      5462      5461      5463      5461      5464      5464      5465
      5464      5466      5464      5467      5467      5468      5467      5469
      5467      5470      5470      5471      5470      5472      5470      5473
      5473      5474      5473      5475      5473      5476      5476      5477
      5476      5478      5476      5479      5479      5480      5479      5481
      5479      5482      5482      5483      5482      5484      5482      5485
      5485      5486      5485      5487      5485      5488      5488      5489
      5488      5490      5488      5491      5491      5492      5491      5493
      5491      5494      5495      5499      5495      5503      5495      5507
      5499      5500      5499      5501      5499      5502      5503      5504
      5503      5505      5503      5506      5507      5508      5507      5509
      5507      5510      5495      5496      5496      5497      5496      5498
      5496      5511      5511      5512      5511      5513      5511      5517
      5518      5519      5517      5514      5514      5518      5514      5515
      5514      5516      5519      5520      5519      5521      5519      5522
      5522      5523      5522      5530      5522      5524      5530      5531
      5530      5532      5530      5533      5524      5525      5525      5527
      5525      5526      5527      5528      5527      5529      5527      5539
      5539      5540      5539      5541      5539      5542      5542      5543
      5542      5544      5542      5545      5545      5546      5545      5547
      5545      5548      5548      5549      5548      5550      5548      5551
      5551      5552      5551      5553      5551      5554      5554      5555
      5554      5556      5554      5557      5557      5558      5557      5559
      5559      5560      5559      5561      5561      5562      5561      5563
      5561      5564      5564      5565      5564      5566      5564      5567
      5567      5568      5567      5569      5567      5570      5570      5571
      5570      5572      5570      5573      5573      5574      5573      5575
      5573      5576      5576      5577      5576      5578      5576      5579
      5579      5580      5579      5581      5579      5582      5582      5583
      5582      5584      5582      5585      5533      5534      5534      5536
      5534      5535      5536      5537      5536      5538      5536      5586
      5586      5587      5586      5588      5586      5589      5589      5590
      5589      5591      5589      5592      5592      5593      5592      5594
      5592      5595      5595      5596      5595      5597      5595      5598
      5598      5599      5598      5600      5598      5601      5601      5602
      5601      5603      5601      5604      5604      5605      5604      5606
      5604      5607      5607      5608      5607      5609      5607      5610
      5610      5611      5610      5612      5610      5613      5613      5614
      5613      5615      5613      5616      5616      5617      5616      5618
      5616      5619      5619      5620      5619      5621      5619      5622
      5622      5623      5622      5624      5622      5625      5625      5626
      5625      5627      5625      5628      5629      5633      5629      5637
      5629      5641      5633      5634      5633      5635      5633      5636
      5637      5638      5637      5639      5637      5640      5641      5642
      5641      5643      5641      5644      5629      5630      5630      5631
      5630      5632      5630      5645      5645      5646      5645      5647
      5645      5651      5652      5653      5651      5648      5648      5652
      5648      5649      5648      5650      5653      5654      5653      5655
      5653      5656      5656      5657      5656      5664      5656      5658
      5664      5665      5664      5666      5664      5667      5658      5659
      5659      5661      5659      5660      5661      5662      5661      5663
      5661      5673      5673      5674      5673      5675      5673      5676
      5676      5677      5676      5678      5676      5679      5679      5680
      5679      5681      5679      5682      5682      5683      5682      5684
      5682      5685      5685      5686      5685      5687      5685      5688
      5688      5689      5688      5690      5688      5691      5691      5692
      5691      5693      5693      5694      5693      5695      5695      5696
      5695      5697      5695      5698      5698      5699      5698      5700
      5698      5701      5701      5702      5701      5703      5701      5704
      5704      5705      5704      5706      5704      5707      5707      5708
      5707      5709      5707      5710      5710      5711      5710      5712
      5710      5713      5713      5714      5713      5715      5713      5716
      5716      5717      5716      5718      5716      5719      5667      5668
      5668      5670      5668      5669      5670      5671      5670      5672
      5670      5720      5720      5721      5720      5722      5720      5723
      5723      5724      5723      5725      5723      5726      5726      5727
      5726      5728      5726      5729      5729      5730      5729      5731
      5729      5732      5732      5733      5732      5734      5732      5735
      5735      5736      5735      5737      5735      5738      5738      5739
      5738      5740      5738      5741      5741      5742      5741      5743
      5741      5744      5744      5745      5744      5746      5744      5747
      5747      5748      5747      5749      5747      5750      5750      5751
      5750      5752      5750      5753      5753      5754      5753      5755
      5753      5756      5756      5757      5756      5758      5756      5759
      5759      5760      5759      5761      5759      5762      5763      5767
      5763      5771      5763      5775      5767      5768      5767      5769
      5767      5770      5771      5772      5771      5773      5771      5774
      5775      5776      5775      5777      5775      5778      5763      5764
      5764      5765      5764      5766      5764      5779      5779      5780
      5779      5781      5779      5785      5786      5787      5785      5782
      5782      5786      5782      5783      5782      5784      5787      5788
      5787      5789      5787      5790      5790      5791      5790      5798
      5790      5792      5798      5799      5798      5800      5798      5801
      5792      5793      5793      5795      5793      5794      5795      5796
      5795      5797      5795      5807      5807      5808      5807      5809
      5807      5810      5810      5811      5810      5812      5810      5813
      5813      5814      5813      5815      5813      5816      5816      5817
      5816      5818      5816      5819      5819      5820      5819      5821
      5819      5822      5822      5823      5822      5824      5822      5825
      5825      5826      5825      5827      5827      5828      5827      5829
      5829      5830      5829      5831      5829      5832      5832      5833
      5832      5834      5832      5835      5835      5836      5835      5837
      5835      5838      5838      5839      5838      5840      5838      5841
      5841      5842      5841      5843      5841      5844      5844      5845
      5844      5846      5844      5847      5847      5848      5847      5849
      5847      5850      5850      5851      5850      5852      5850      5853
      5801      5802      5802      5804      5802      5803      5804      5805
      5804      5806      5804      5854      5854      5855      5854      5856
      5854      5857      5857      5858      5857      5859      5857      5860
      5860      5861      5860      5862      5860      5863      5863      5864
      5863      5865      5863      5866      5866      5867      5866      5868
      5866      5869      5869      5870      5869      5871      5869      5872
      5872      5873      5872      5874      5872      5875      5875      5876
      5875      5877      5875      5878      5878      5879      5878      5880
      5878      5881      5881      5882      5881      5883      5881      5884
      5884      5885      5884      5886      5884      5887      5887      5888
      5887      5889      5887      5890      5890      5891      5890      5892
      5890      5893      5893      5894      5893      5895      5893      5896
      5897      5901      5897      5905      5897      5909      5901      5902
      5901      5903      5901      5904      5905      5906      5905      5907
      5905      5908      5909      5910      5909      5911      5909      5912
      5897      5898      5898      5899      5898      5900      5898      5913
      5913      5914      5913      5915      5913      5919      5920      5921
      5919      5916      5916      5920      5916      5917      5916      5918
      5921      5922      5921      5923      5921      5924      5924      5925
      5924      5932      5924      5926      5932      5933      5932      5934
      5932      5935      5926      5927      5927      5929      5927      5928
      5929      5930      5929      5931      5929      5941      5941      5942
      5941      5943      5941      5944      5944      5945      5944      5946
      5944      5947      5947      5948      5947      5949      5947      5950
      5950      5951      5950      5952      5950      5953      5953      5954
      5953      5955      5953      5956      5956      5957      5956      5958
      5956      5959      5959      5960      5959      5961      5961      5962
      5961      5963      5963      5964      5963      5965      5963      5966
      5966      5967      5966      5968      5966      5969      5969      5970
      5969      5971      5969      5972      5972      5973      5972      5974
      5972      5975      5975      5976      5975      5977      5975      5978
      5978      5979      5978      5980      5978      5981      5981      5982
      5981      5983      5981      5984      5984      5985      5984      5986
      5984      5987      5935      5936      5936      5938      5936      5937
      5938      5939      5938      5940      5938      5988      5988      5989
      5988      5990      5988      5991      5991      5992      5991      5993
      5991      5994      5994      5995      5994      5996      5994      5997
      5997      5998      5997      5999      5997      6000      6000      6001
      6000      6002      6000      6003      6003      6004      6003      6005
      6003      6006      6006      6007      6006      6008      6006      6009
      6009      6010      6009      6011      6009      6012      6012      6013
      6012      6014      6012      6015      6015      6016      6015      6017
      6015      6018      6018      6019      6018      6020      6018      6021
      6021      6022      6021      6023      6021      6024      6024      6025
      6024      6026      6024      6027      6027      6028      6027      6029
      6027      6030      6031      6035      6031      6039      6031      6043
      6035      6036      6035      6037      6035      6038      6039      6040
      6039      6041      6039      6042      6043      6044      6043      6045
      6043      6046      6031      6032      6032      6033      6032      6034
      6032      6047      6047      6048      6047      6049      6047      6053
      6054      6055      6053      6050      6050      6054      6050      6051
      6050      6052      6055      6056      6055      6057      6055      6058
      6058      6059      6058      6066      6058      6060      6066      6067
      6066      6068      6066      6069      6060      6061      6061      6063
      6061      6062      6063      6064      6063      6065      6063      6075
      6075      6076      6075      6077      6075      6078      6078      6079
      6078      6080      6078      6081      6081      6082      6081      6083
      6081      6084      6084      6085      6084      6086      6084      6087
      6087      6088      6087      6089      6087      6090      6090      6091
      6090      6092      6090      6093      6093      6094      6093      6095
      6095      6096      6095      6097      6097      6098      6097      6099
      6097      6100      6100      6101      6100      6102      6100      6103
      6103      6104      6103      6105      6103      6106      6106      6107
      6106      6108      6106      6109      6109      6110      6109      6111
      6109      6112      6112      6113      6112      6114      6112      6115
      6115      6116      6115      6117      6115      6118      6118      6119
      6118      6120      6118      6121      6069      6070      6070      6072
      6070      6071      6072      6073      6072      6074      6072      6122
      6122      6123      6122      6124      6122      6125      6125      6126
      6125      6127      6125      6128      6128      6129      6128      6130
      6128      6131      6131      6132      6131      6133      6131      6134
      6134      6135      6134      6136      6134      6137      6137      6138
      6137      6139      6137      6140      6140      6141      6140      6142
      6140      6143      6143      6144      6143      6145      6143      6146
      6146      6147      6146      6148      6146      6149      6149      6150
      6149      6151      6149      6152      6152      6153      6152      6154
      6152      6155      6155      6156      6155      6157      6155      6158
      6158      6159      6158      6160      6158      6161      6161      6162
      6161      6163      6161      6164      6165      6169      6165      6173
      6165      6177      6169      6170      6169      6171      6169      6172
      6173      6174      6173      6175      6173      6176      6177      6178
      6177      6179      6177      6180      6165      6166      6166      6167
      6166      6168      6166      6181      6181      6182      6181      6183
      6181      6187      6188      6189      6187      6184      6184      6188
      6184      6185      6184      6186      6189      6190      6189      6191
      6189      6192      6192      6193      6192      6200      6192      6194
      6200      6201      6200      6202      6200      6203      6194      6195
      6195      6197      6195      6196      6197      6198      6197      6199
      6197      6209      6209      6210      6209      6211      6209      6212
      6212      6213      6212      6214      6212      6215      6215      6216
      6215      6217      6215      6218      6218      6219      6218      6220
      6218      6221      6221      6222      6221      6223      6221      6224
      6224      6225      6224      6226      6224      6227      6227      6228
      6227      6229      6229      6230      6229      6231      6231      6232
      6231      6233      6231      6234      6234      6235      6234      6236
      6234      6237      6237      6238      6237      6239      6237      6240
      6240      6241      6240      6242      6240      6243      6243      6244
      6243      6245      6243      6246      6246      6247      6246      6248
      6246      6249      6249      6250      6249      6251      6249      6252
      6252      6253      6252      6254      6252      6255      6203      6204
      6204      6206      6204      6205      6206      6207      6206      6208
      6206      6256      6256      6257      6256      6258      6256      6259
      6259      6260      6259      6261      6259      6262      6262      6263
      6262      6264      6262      6265      6265      6266      6265      6267
      6265      6268      6268      6269      6268      6270      6268      6271
      6271      6272      6271      6273      6271      6274      6274      6275
      6274      6276      6274      6277      6277      6278      6277      6279
      6277      6280      6280      6281      6280      6282      6280      6283
      6283      6284      6283      6285      6283      6286      6286      6287
      6286      6288      6286      6289      6289      6290      6289      6291
      6289      6292      6292      6293      6292      6294      6292      6295
      6295      6296      6295      6297      6295      6298      6299      6303
      6299      6307      6299      6311      6303      6304      6303      6305
      6303      6306      6307      6308      6307      6309      6307      6310
      6311      6312      6311      6313      6311      6314      6299      6300
      6300      6301      6300      6302      6300      6315      6315      6316
      6315      6317      6315      6321      6322      6323      6321      6318
      6318      6322      6318      6319      6318      6320      6323      6324
      6323      6325      6323      6326      6326      6327      6326      6334
      6326      6328      6334      6335      6334      6336      6334      6337
      6328      6329      6329      6331      6329      6330      6331      6332
      6331      6333      6331      6343      6343      6344      6343      6345
      6343      6346      6346      6347      6346      6348      6346      6349
      6349      6350      6349      6351      6349      6352      6352      6353
      6352      6354      6352      6355      6355      6356      6355      6357
      6355      6358      6358      6359      6358      6360      6358      6361
      6361      6362      6361      6363      6363      6364      6363      6365
      6365      6366      6365      6367      6365      6368      6368      6369
      6368      6370      6368      6371      6371      6372      6371      6373
      6371      6374      6374      6375      6374      6376      6374      6377
      6377      6378      6377      6379      6377      6380      6380      6381
      6380      6382      6380      6383      6383      6384      6383      6385
      6383      6386      6386      6387      6386      6388      6386      6389
      6337      6338      6338      6340      6338      6339      6340      6341
      6340      6342      6340      6390      6390      6391      6390      6392
      6390      6393      6393      6394      6393      6395      6393      6396
      6396      6397      6396      6398      6396      6399      6399      6400
      6399      6401      6399      6402      6402      6403      6402      6404
      6402      6405      6405      6406      6405      6407      6405      6408
      6408      6409      6408      6410      6408      6411      6411      6412
      6411      6413      6411      6414      6414      6415      6414      6416
      6414      6417      6417      6418      6417      6419      6417      6420
      6420      6421      6420      6422      6420      6423      6423      6424
      6423      6425      6423      6426      6426      6427      6426      6428
      6426      6429      6429      6430      6429      6431      6429      6432
      6433      6437      6433      6441      6433      6445      6437      6438
      6437      6439      6437      6440      6441      6442      6441      6443
      6441      6444      6445      6446      6445      6447      6445      6448
      6433      6434      6434      6435      6434      6436      6434      6449
      6449      6450      6449      6451      6449      6455      6456      6457
      6455      6452      6452      6456      6452      6453      6452      6454
      6457      6458      6457      6459      6457      6460      6460      6461
      6460      6468      6460      6462      6468      6469      6468      6470
      6468      6471      6462      6463      6463      6465      6463      6464
      6465      6466      6465      6467      6465      6477      6477      6478
      6477      6479      6477      6480      6480      6481      6480      6482
      6480      6483      6483      6484      6483      6485      6483      6486
      6486      6487      6486      6488      6486      6489      6489      6490
      6489      6491      6489      6492      6492      6493      6492      6494
      6492      6495      6495      6496      6495      6497      6497      6498
      6497      6499      6499      6500      6499      6501      6499      6502
      6502      6503      6502      6504      6502      6505      6505      6506
      6505      6507      6505      6508      6508      6509      6508      6510
      6508      6511      6511      6512      6511      6513      6511      6514
      6514      6515      6514      6516      6514      6517      6517      6518
      6517      6519      6517      6520      6520      6521      6520      6522
      6520      6523      6471      6472      6472      6474      6472      6473
      6474      6475      6474      6476      6474      6524      6524      6525
      6524      6526      6524      6527      6527      6528      6527      6529
      6527      6530      6530      6531      6530      6532      6530      6533
      6533      6534      6533      6535      6533      6536      6536      6537
      6536      6538      6536      6539      6539      6540      6539      6541
      6539      6542      6542      6543      6542      6544      6542      6545
      6545      6546      6545      6547      6545      6548      6548      6549
      6548      6550      6548      6551      6551      6552      6551      6553
      6551      6554      6554      6555      6554      6556      6554      6557
      6557      6558      6557      6559      6557      6560      6560      6561
      6560      6562      6560      6563      6563      6564      6563      6565
      6563      6566      6567      6571      6567      6575      6567      6579
      6571      6572      6571      6573      6571      6574      6575      6576
      6575      6577      6575      6578      6579      6580      6579      6581
      6579      6582      6567      6568      6568      6569      6568      6570
      6568      6583      6583      6584      6583      6585      6583      6589
      6590      6591      6589      6586      6586      6590      6586      6587
      6586      6588      6591      6592      6591      6593      6591      6594
      6594      6595      6594      6602      6594      6596      6602      6603
      6602      6604      6602      6605      6596      6597      6597      6599
      6597      6598      6599      6600      6599      6601      6599      6611
      6611      6612      6611      6613      6611      6614      6614      6615
      6614      6616      6614      6617      6617      6618      6617      6619
      6617      6620      6620      6621      6620      6622      6620      6623
      6623      6624      6623      6625      6623      6626      6626      6627
      6626      6628      6626      6629      6629      6630      6629      6631
      6631      6632      6631      6633      6633      6634      6633      6635
      6633      6636      6636      6637      6636      6638      6636      6639
      6639      6640      6639      6641      6639      6642      6642      6643
      6642      6644      6642      6645      6645      6646      6645      6647
      6645      6648      6648      6649      6648      6650      6648      6651
      6651      6652      6651      6653      6651      6654      6654      6655
      6654      6656      6654      6657      6605      6606      6606      6608
      6606      6607      6608      6609      6608      6610      6608      6658
      6658      6659      6658      6660      6658      6661      6661      6662
      6661      6663      6661      6664      6664      6665      6664      6666
      6664      6667      6667      6668      6667      6669      6667      6670
      6670      6671      6670      6672      6670      6673      6673      6674
      6673      6675      6673      6676      6676      6677      6676      6678
      6676      6679      6679      6680      6679      6681      6679      6682
      6682      6683      6682      6684      6682      6685      6685      6686
      6685      6687      6685      6688      6688      6689      6688      6690
      6688      6691      6691      6692      6691      6693      6691      6694
      6694      6695      6694      6696      6694      6697      6697      6698
      6697      6699      6697      6700      6701      6705      6701      6709
      6701      6713      6705      6706      6705      6707      6705      6708
      6709      6710      6709      6711      6709      6712      6713      6714
      6713      6715      6713      6716      6701      6702      6702      6703
      6702      6704      6702      6717      6717      6718      6717      6719
      6717      6723      6724      6725      6723      6720      6720      6724
      6720      6721      6720      6722      6725      6726      6725      6727
      6725      6728      6728      6729      6728      6736      6728      6730
      6736      6737      6736      6738      6736      6739      6730      6731
      6731      6733      6731      6732      6733      6734      6733      6735
      6733      6745      6745      6746      6745      6747      6745      6748
      6748      6749      6748      6750      6748      6751      6751      6752
      6751      6753      6751      6754      6754      6755      6754      6756
      6754      6757      6757      6758      6757      6759      6757      6760
      6760      6761      6760      6762      6760      6763      6763      6764
      6763      6765      6765      6766      6765      6767      6767      6768
      6767      6769      6767      6770      6770      6771      6770      6772
      6770      6773      6773      6774      6773      6775      6773      6776
      6776      6777      6776      6778      6776      6779      6779      6780
      6779      6781      6779      6782      6782      6783      6782      6784
      6782      6785      6785      6786      6785      6787      6785      6788
      6788      6789      6788      6790      6788      6791      6739      6740
      6740      6742      6740      6741      6742      6743      6742      6744
      6742      6792      6792      6793      6792      6794      6792      6795
      6795      6796      6795      6797      6795      6798      6798      6799
      6798      6800      6798      6801      6801      6802      6801      6803
      6801      6804      6804      6805      6804      6806      6804      6807
      6807      6808      6807      6809      6807      6810      6810      6811
      6810      6812      6810      6813      6813      6814      6813      6815
      6813      6816      6816      6817      6816      6818      6816      6819
      6819      6820      6819      6821      6819      6822      6822      6823
      6822      6824      6822      6825      6825      6826      6825      6827
      6825      6828      6828      6829      6828      6830      6828      6831
      6831      6832      6831      6833      6831      6834      6835      6839
      6835      6843      6835      6847      6839      6840      6839      6841
      6839      6842      6843      6844      6843      6845      6843      6846
      6847      6848      6847      6849      6847      6850      6835      6836
      6836      6837      6836      6838      6836      6851      6851      6852
      6851      6853      6851      6857      6858      6859      6857      6854
      6854      6858      6854      6855      6854      6856      6859      6860
      6859      6861      6859      6862      6862      6863      6862      6870
      6862      6864      6870      6871      6870      6872      6870      6873
      6864      6865      6865      6867      6865      6866      6867      6868
      6867      6869      6867      6879      6879      6880      6879      6881
      6879      6882      6882      6883      6882      6884      6882      6885
      6885      6886      6885      6887      6885      6888      6888      6889
      6888      6890      6888      6891      6891      6892      6891      6893
      6891      6894      6894      6895      6894      6896      6894      6897
      6897      6898      6897      6899      6899      6900      6899      6901
      6901      6902      6901      6903      6901      6904      6904      6905
      6904      6906      6904      6907      6907      6908      6907      6909
      6907      6910      6910      6911      6910      6912      6910      6913
      6913      6914      6913      6915      6913      6916      6916      6917
      6916      6918      6916      6919      6919      6920      6919      6921
      6919      6922      6922      6923      6922      6924      6922      6925
      6873      6874      6874      6876      6874      6875      6876      6877
      6876      6878      6876      6926      6926      6927      6926      6928
      6926      6929      6929      6930      6929      6931      6929      6932
      6932      6933      6932      6934      6932      6935      6935      6936
      6935      6937      6935      6938      6938      6939      6938      6940
      6938      6941      6941      6942      6941      6943      6941      6944
      6944      6945      6944      6946      6944      6947      6947      6948
      6947      6949      6947      6950      6950      6951      6950      6952
      6950      6953      6953      6954      6953      6955      6953      6956
      6956      6957      6956      6958      6956      6959      6959      6960
      6959      6961      6959      6962      6962      6963      6962      6964
      6962      6965      6965      6966      6965      6967      6965      6968
      6969      6973      6969      6977      6969      6981      6973      6974
      6973      6975      6973      6976      6977      6978      6977      6979
      6977      6980      6981      6982      6981      6983      6981      6984
      6969      6970      6970      6971      6970      6972      6970      6985
      6985      6986      6985      6987      6985      6991      6992      6993
      6991      6988      6988      6992      6988      6989      6988      6990
      6993      6994      6993      6995      6993      6996      6996      6997
      6996      7004      6996      6998      7004      7005      7004      7006
      7004      7007      6998      6999      6999      7001      6999      7000
      7001      7002      7001      7003      7001      7013      7013      7014
      7013      7015      7013      7016      7016      7017      7016      7018
      7016      7019      7019      7020      7019      7021      7019      7022
      7022      7023      7022      7024      7022      7025      7025      7026
      7025      7027      7025      7028      7028      7029      7028      7030
      7028      7031      7031      7032      7031      7033      7033      7034
      7033      7035      7035      7036      7035      7037      7035      7038
      7038      7039      7038      7040      7038      7041      7041      7042
      7041      7043      7041      7044      7044      7045      7044      7046
      7044      7047      7047      7048      7047      7049      7047      7050
      7050      7051      7050      7052      7050      7053      7053      7054
      7053      7055      7053      7056      7056      7057      7056      7058
      7056      7059      7007      7008      7008      7010      7008      7009
      7010      7011      7010      7012      7010      7060      7060      7061
      7060      7062      7060      7063      7063      7064      7063      7065
      7063      7066      7066      7067      7066      7068      7066      7069
      7069      7070      7069      7071      7069      7072      7072      7073
      7072      7074      7072      7075      7075      7076      7075      7077
      7075      7078      7078      7079      7078      7080      7078      7081
      7081      7082      7081      7083      7081      7084      7084      7085
      7084      7086      7084      7087      7087      7088      7087      7089
      7087      7090      7090      7091      7090      7092      7090      7093
      7093      7094      7093      7095      7093      7096      7096      7097
      7096      7098      7096      7099      7099      7100      7099      7101
      7099      7102      7103      7107      7103      7111      7103      7115
      7107      7108      7107      7109      7107      7110      7111      7112
      7111      7113      7111      7114      7115      7116      7115      7117
      7115      7118      7103      7104      7104      7105      7104      7106
      7104      7119      7119      7120      7119      7121      7119      7125
      7126      7127      7125      7122      7122      7126      7122      7123
      7122      7124      7127      7128      7127      7129      7127      7130
      7130      7131      7130      7138      7130      7132      7138      7139
      7138      7140      7138      7141      7132      7133      7133      7135
      7133      7134      7135      7136      7135      7137      7135      7147
      7147      7148      7147      7149      7147      7150      7150      7151
      7150      7152      7150      7153      7153      7154      7153      7155
      7153      7156      7156      7157      7156      7158      7156      7159
      7159      7160      7159      7161      7159      7162      7162      7163
      7162      7164      7162      7165      7165      7166      7165      7167
      7167      7168      7167      7169      7169      7170      7169      7171
      7169      7172      7172      7173      7172      7174      7172      7175
      7175      7176      7175      7177      7175      7178      7178      7179
      7178      7180      7178      7181      7181      7182      7181      7183
      7181      7184      7184      7185      7184      7186      7184      7187
      7187      7188      7187      7189      7187      7190      7190      7191
      7190      7192      7190      7193      7141      7142      7142      7144
      7142      7143      7144      7145      7144      7146      7144      7194
      7194      7195      7194      7196      7194      7197      7197      7198
      7197      7199      7197      7200      7200      7201      7200      7202
      7200      7203      7203      7204      7203      7205      7203      7206
      7206      7207      7206      7208      7206      7209      7209      7210
      7209      7211      7209      7212      7212      7213      7212      7214
      7212      7215      7215      7216      7215      7217      7215      7218
      7218      7219      7218      7220      7218      7221      7221      7222
      7221      7223      7221      7224      7224      7225      7224      7226
      7224      7227      7227      7228      7227      7229      7227      7230
      7230      7231      7230      7232      7230      7233      7233      7234
      7233      7235      7233      7236      7237      7241      7237      7245
      7237      7249      7241      7242      7241      7243      7241      7244
      7245      7246      7245      7247      7245      7248      7249      7250
      7249      7251      7249      7252      7237      7238      7238      7239
      7238      7240      7238      7253      7253      7254      7253      7255
      7253      7259      7260      7261      7259      7256      7256      7260
      7256      7257      7256      7258      7261      7262      7261      7263
      7261      7264      7264      7265      7264      7272      7264      7266
      7272      7273      7272      7274      7272      7275      7266      7267
      7267      7269      7267      7268      7269      7270      7269      7271
      7269      7281      7281      7282      7281      7283      7281      7284
      7284      7285      7284      7286      7284      7287      7287      7288
      7287      7289      7287      7290      7290      7291      7290      7292
      7290      7293      7293      7294      7293      7295      7293      7296
      7296      7297      7296      7298      7296      7299      7299      7300
      7299      7301      7301      7302      7301      7303      7303      7304
      7303      7305      7303      7306      7306      7307      7306      7308
      7306      7309      7309      7310      7309      7311      7309      7312
      7312      7313      7312      7314      7312      7315      7315      7316
      7315      7317      7315      7318      7318      7319      7318      7320
      7318      7321      7321      7322      7321      7323      7321      7324
      7324      7325      7324      7326      7324      7327      7275      7276
      7276      7278      7276      7277      7278      7279      7278      7280
      7278      7328      7328      7329      7328      7330      7328      7331
      7331      7332      7331      7333      7331      7334      7334      7335
      7334      7336      7334      7337      7337      7338      7337      7339
      7337      7340      7340      7341      7340      7342      7340      7343
      7343      7344      7343      7345      7343      7346      7346      7347
      7346      7348      7346      7349      7349      7350      7349      7351
      7349      7352      7352      7353      7352      7354      7352      7355
      7355      7356      7355      7357      7355      7358      7358      7359
      7358      7360      7358      7361      7361      7362      7361      7363
      7361      7364      7364      7365      7364      7366      7364      7367
      7367      7368      7367      7369      7367      7370      7371      7375
      7371      7379      7371      7383      7375      7376      7375      7377
      7375      7378      7379      7380      7379      7381      7379      7382
      7383      7384      7383      7385      7383      7386      7371      7372
      7372      7373      7372      7374      7372      7387      7387      7388
      7387      7389      7387      7393      7394      7395      7393      7390
      7390      7394      7390      7391      7390      7392      7395      7396
      7395      7397      7395      7398      7398      7399      7398      7406
      7398      7400      7406      7407      7406      7408      7406      7409
      7400      7401      7401      7403      7401      7402      7403      7404
      7403      7405      7403      7415      7415      7416      7415      7417
      7415      7418      7418      7419      7418      7420      7418      7421
      7421      7422      7421      7423      7421      7424      7424      7425
      7424      7426      7424      7427      7427      7428      7427      7429
      7427      7430      7430      7431      7430      7432      7430      7433
      7433      7434      7433      7435      7435      7436      7435      7437
      7437      7438      7437      7439      7437      7440      7440      7441
      7440      7442      7440      7443      7443      7444      7443      7445
      7443      7446      7446      7447      7446      7448      7446      7449
      7449      7450      7449      7451      7449      7452      7452      7453
      7452      7454      7452      7455      7455      7456      7455      7457
      7455      7458      7458      7459      7458      7460      7458      7461
      7409      7410      7410      7412      7410      7411      7412      7413
      7412      7414      7412      7462      7462      7463      7462      7464
      7462      7465      7465      7466      7465      7467      7465      7468
      7468      7469      7468      7470      7468      7471      7471      7472
      7471      7473      7471      7474      7474      7475      7474      7476
      7474      7477      7477      7478      7477      7479      7477      7480
      7480      7481      7480      7482      7480      7483      7483      7484
      7483      7485      7483      7486      7486      7487      7486      7488
      7486      7489      7489      7490      7489      7491      7489      7492
      7492      7493      7492      7494      7492      7495      7495      7496
      7495      7497      7495      7498      7498      7499      7498      7500
      7498      7501      7501      7502      7501      7503      7501      7504
      7505      7509      7505      7513      7505      7517      7509      7510
      7509      7511      7509      7512      7513      7514      7513      7515
      7513      7516      7517      7518      7517      7519      7517      7520
      7505      7506      7506      7507      7506      7508      7506      7521
      7521      7522      7521      7523      7521      7527      7528      7529
      7527      7524      7524      7528      7524      7525      7524      7526
      7529      7530      7529      7531      7529      7532      7532      7533
      7532      7540      7532      7534      7540      7541      7540      7542
      7540      7543      7534      7535      7535      7537      7535      7536
      7537      7538      7537      7539      7537      7549      7549      7550
      7549      7551      7549      7552      7552      7553      7552      7554
      7552      7555      7555      7556      7555      7557      7555      7558
      7558      7559      7558      7560      7558      7561      7561      7562
      7561      7563      7561      7564      7564      7565      7564      7566
      7564      7567      7567      7568      7567      7569      7569      7570
      7569      7571      7571      7572      7571      7573      7571      7574
      7574      7575      7574      7576      7574      7577      7577      7578
      7577      7579      7577      7580      7580      7581      7580      7582
      7580      7583      7583      7584      7583      7585      7583      7586
      7586      7587      7586      7588      7586      7589      7589      7590
      7589      7591      7589      7592      7592      7593      7592      7594
      7592      7595      7543      7544      7544      7546      7544      7545
      7546      7547      7546      7548      7546      7596      7596      7597
      7596      7598      7596      7599      7599      7600      7599      7601
      7599      7602      7602      7603      7602      7604      7602      7605
      7605      7606      7605      7607      7605      7608      7608      7609
      7608      7610      7608      7611      7611      7612      7611      7613
      7611      7614      7614      7615      7614      7616      7614      7617
      7617      7618      7617      7619      7617      7620      7620      7621
      7620      7622      7620      7623      7623      7624      7623      7625
      7623      7626      7626      7627      7626      7628      7626      7629
      7629      7630      7629      7631      7629      7632      7632      7633
      7632      7634      7632      7635      7635      7636      7635      7637
      7635      7638      7639      7643      7639      7647      7639      7651
      7643      7644      7643      7645      7643      7646      7647      7648
      7647      7649      7647      7650      7651      7652      7651      7653
      7651      7654      7639      7640      7640      7641      7640      7642
      7640      7655      7655      7656      7655      7657      7655      7661
      7662      7663      7661      7658      7658      7662      7658      7659
      7658      7660      7663      7664      7663      7665      7663      7666
      7666      7667      7666      7674      7666      7668      7674      7675
      7674      7676      7674      7677      7668      7669      7669      7671
      7669      7670      7671      7672      7671      7673      7671      7683
      7683      7684      7683      7685      7683      7686      7686      7687
      7686      7688      7686      7689      7689      7690      7689      7691
      7689      7692      7692      7693      7692      7694      7692      7695
      7695      7696      7695      7697      7695      7698      7698      7699
      7698      7700      7698      7701      7701      7702      7701      7703
      7703      7704      7703      7705      7705      7706      7705      7707
      7705      7708      7708      7709      7708      7710      7708      7711
      7711      7712      7711      7713      7711      7714      7714      7715
      7714      7716      7714      7717      7717      7718      7717      7719
      7717      7720      7720      7721      7720      7722      7720      7723
      7723      7724      7723      7725      7723      7726      7726      7727
      7726      7728      7726      7729      7677      7678      7678      7680
      7678      7679      7680      7681      7680      7682      7680      7730
      7730      7731      7730      7732      7730      7733      7733      7734
      7733      7735      7733      7736      7736      7737      7736      7738
      7736      7739      7739      7740      7739      7741      7739      7742
      7742      7743      7742      7744      7742      7745      7745      7746
      7745      7747      7745      7748      7748      7749      7748      7750
      7748      7751      7751      7752      7751      7753      7751      7754
      7754      7755      7754      7756      7754      7757      7757      7758
      7757      7759      7757      7760      7760      7761      7760      7762
      7760      7763      7763      7764      7763      7765      7763      7766
      7766      7767      7766      7768      7766      7769      7769      7770
      7769      7771      7769      7772      7773      7777      7773      7781
      7773      7785      7777      7778      7777      7779      7777      7780
      7781      7782      7781      7783      7781      7784      7785      7786
      7785      7787      7785      7788      7773      7774      7774      7775
      7774      7776      7774      7789      7789      7790      7789      7791
      7789      7795      7796      7797      7795      7792      7792      7796
      7792      7793      7792      7794      7797      7798      7797      7799
      7797      7800      7800      7801      7800      7808      7800      7802
      7808      7809      7808      7810      7808      7811      7802      7803
      7803      7805      7803      7804      7805      7806      7805      7807
      7805      7817      7817      7818      7817      7819      7817      7820
      7820      7821      7820      7822      7820      7823      7823      7824
      7823      7825      7823      7826      7826      7827      7826      7828
      7826      7829      7829      7830      7829      7831      7829      7832
      7832      7833      7832      7834      7832      7835      7835      7836
      7835      7837      7837      7838      7837      7839      7839      7840
      7839      7841      7839      7842      7842      7843      7842      7844
      7842      7845      7845      7846      7845      7847      7845      7848
      7848      7849      7848      7850      7848      7851      7851      7852
      7851      7853      7851      7854      7854      7855      7854      7856
      7854      7857      7857      7858      7857      7859      7857      7860
      7860      7861      7860      7862      7860      7863      7811      7812
      7812      7814      7812      7813      7814      7815      7814      7816
      7814      7864      7864      7865      7864      7866      7864      7867
      7867      7868      7867      7869      7867      7870      7870      7871
      7870      7872      7870      7873      7873      7874      7873      7875
      7873      7876      7876      7877      7876      7878      7876      7879
      7879      7880      7879      7881      7879      7882      7882      7883
      7882      7884      7882      7885      7885      7886      7885      7887
      7885      7888      7888      7889      7888      7890      7888      7891
      7891      7892      7891      7893      7891      7894      7894      7895
      7894      7896      7894      7897      7897      7898      7897      7899
      7897      7900      7900      7901      7900      7902      7900      7903
      7903      7904      7903      7905      7903      7906      7907      7911
      7907      7915      7907      7919      7911      7912      7911      7913
      7911      7914      7915      7916      7915      7917      7915      7918
      7919      7920      7919      7921      7919      7922      7907      7908
      7908      7909      7908      7910      7908      7923      7923      7924
      7923      7925      7923      7929      7930      7931      7929      7926
      7926      7930      7926      7927      7926      7928      7931      7932
      7931      7933      7931      7934      7934      7935      7934      7942
      7934      7936      7942      7943      7942      7944      7942      7945
      7936      7937      7937      7939      7937      7938      7939      7940
      7939      7941      7939      7951      7951      7952      7951      7953
      7951      7954      7954      7955      7954      7956      7954      7957
      7957      7958      7957      7959      7957      7960      7960      7961
      7960      7962      7960      7963      7963      7964      7963      7965
      7963      7966      7966      7967      7966      7968      7966      7969
      7969      7970      7969      7971      7971      7972      7971      7973
      7973      7974      7973      7975      7973      7976      7976      7977
      7976      7978      7976      7979      7979      7980      7979      7981
      7979      7982      7982      7983      7982      7984      7982      7985
      7985      7986      7985      7987      7985      7988      7988      7989
      7988      7990      7988      7991      7991      7992      7991      7993
      7991      7994      7994      7995      7994      7996      7994      7997
      7945      7946      7946      7948      7946      7947      7948      7949
      7948      7950      7948      7998      7998      7999      7998      8000
      7998      8001      8001      8002      8001      8003      8001      8004
      8004      8005      8004      8006      8004      8007      8007      8008
      8007      8009      8007      8010      8010      8011      8010      8012
      8010      8013      8013      8014      8013      8015      8013      8016
      8016      8017      8016      8018      8016      8019      8019      8020
      8019      8021      8019      8022      8022      8023      8022      8024
      8022      8025      8025      8026      8025      8027      8025      8028
      8028      8029      8028      8030      8028      8031      8031      8032
      8031      8033      8031      8034      8034      8035      8034      8036
      8034      8037      8037      8038      8037      8039      8037      8040
      8041      8045      8041      8049      8041      8053      8045      8046
      8045      8047      8045      8048      8049      8050      8049      8051
      8049      8052      8053      8054      8053      8055      8053      8056
      8041      8042      8042      8043      8042      8044      8042      8057
      8057      8058      8057      8059      8057      8063      8064      8065
      8063      8060      8060      8064      8060      8061      8060      8062
      8065      8066      8065      8067      8065      8068      8068      8069
      8068      8076      8068      8070      8076      8077      8076      8078
      8076      8079      8070      8071      8071      8073      8071      8072
      8073      8074      8073      8075      8073      8085      8085      8086
      8085      8087      8085      8088      8088      8089      8088      8090
      8088      8091      8091      8092      8091      8093      8091      8094
      8094      8095      8094      8096      8094      8097      8097      8098
      8097      8099      8097      8100      8100      8101      8100      8102
      8100      8103      8103      8104      8103      8105      8105      8106
      8105      8107      8107      8108      8107      8109      8107      8110
      8110      8111      8110      8112      8110      8113      8113      8114
      8113      8115      8113      8116      8116      8117      8116      8118
      8116      8119      8119      8120      8119      8121      8119      8122
      8122      8123      8122      8124      8122      8125      8125      8126
      8125      8127      8125      8128      8128      8129      8128      8130
      8128      8131      8079      8080      8080      8082      8080      8081
      8082      8083      8082      8084      8082      8132      8132      8133
      8132      8134      8132      8135      8135      8136      8135      8137
      8135      8138      8138      8139      8138      8140      8138      8141
      8141      8142      8141      8143      8141      8144      8144      8145
      8144      8146      8144      8147      8147      8148      8147      8149
      8147      8150      8150      8151      8150      8152      8150      8153
      8153      8154      8153      8155      8153      8156      8156      8157
      8156      8158      8156      8159      8159      8160      8159      8161
      8159      8162      8162      8163      8162      8164      8162      8165
      8165      8166      8165      8167      8165      8168      8168      8169
      8168      8170      8168      8171      8171      8172      8171      8173
      8171      8174      8175      8179      8175      8183      8175      8187
      8179      8180      8179      8181      8179      8182      8183      8184
      8183      8185      8183      8186      8187      8188      8187      8189
      8187      8190      8175      8176      8176      8177      8176      8178
      8176      8191      8191      8192      8191      8193      8191      8197
      8198      8199      8197      8194      8194      8198      8194      8195
      8194      8196      8199      8200      8199      8201      8199      8202
      8202      8203      8202      8210      8202      8204      8210      8211
      8210      8212      8210      8213      8204      8205      8205      8207
      8205      8206      8207      8208      8207      8209      8207      8219
      8219      8220      8219      8221      8219      8222      8222      8223
      8222      8224      8222      8225      8225      8226      8225      8227
      8225      8228      8228      8229      8228      8230      8228      8231
      8231      8232      8231      8233      8231      8234      8234      8235
      8234      8236      8234      8237      8237      8238      8237      8239
      8239      8240      8239      8241      8241      8242      8241      8243
      8241      8244      8244      8245      8244      8246      8244      8247
      8247      8248      8247      8249      8247      8250      8250      8251
      8250      8252      8250      8253      8253      8254      8253      8255
      8253      8256      8256      8257      8256      8258      8256      8259
      8259      8260      8259      8261      8259      8262      8262      8263
      8262      8264      8262      8265      8213      8214      8214      8216
      8214      8215      8216      8217      8216      8218      8216      8266
      8266      8267      8266      8268      8266      8269      8269      8270
      8269      8271      8269      8272      8272      8273      8272      8274
      8272      8275      8275      8276      8275      8277      8275      8278
      8278      8279      8278      8280      8278      8281      8281      8282
      8281      8283      8281      8284      8284      8285      8284      8286
      8284      8287      8287      8288      8287      8289      8287      8290
      8290      8291      8290      8292      8290      8293      8293      8294
      8293      8295      8293      8296      8296      8297      8296      8298
      8296      8299      8299      8300      8299      8301      8299      8302
      8302      8303      8302      8304      8302      8305      8305      8306
      8305      8307      8305      8308      8309      8313      8309      8317
      8309      8321      8313      8314      8313      8315      8313      8316
      8317      8318      8317      8319      8317      8320      8321      8322
      8321      8323      8321      8324      8309      8310      8310      8311
      8310      8312      8310      8325      8325      8326      8325      8327
      8325      8331      8332      8333      8331      8328      8328      8332
      8328      8329      8328      8330      8333      8334      8333      8335
      8333      8336      8336      8337      8336      8344      8336      8338
      8344      8345      8344      8346      8344      8347      8338      8339
      8339      8341      8339      8340      8341      8342      8341      8343
      8341      8353      8353      8354      8353      8355      8353      8356
      8356      8357      8356      8358      8356      8359      8359      8360
      8359      8361      8359      8362      8362      8363      8362      8364
      8362      8365      8365      8366      8365      8367      8365      8368
      8368      8369      8368      8370      8368      8371      8371      8372
      8371      8373      8373      8374      8373      8375      8375      8376
      8375      8377      8375      8378      8378      8379      8378      8380
      8378      8381      8381      8382      8381      8383      8381      8384
      8384      8385      8384      8386      8384      8387      8387      8388
      8387      8389      8387      8390      8390      8391      8390      8392
      8390      8393      8393      8394      8393      8395      8393      8396
      8396      8397      8396      8398      8396      8399      8347      8348
      8348      8350      8348      8349      8350      8351      8350      8352
      8350      8400      8400      8401      8400      8402      8400      8403
      8403      8404      8403      8405      8403      8406      8406      8407
      8406      8408      8406      8409      8409      8410      8409      8411
      8409      8412      8412      8413      8412      8414      8412      8415
      8415      8416      8415      8417      8415      8418      8418      8419
      8418      8420      8418      8421      8421      8422      8421      8423
      8421      8424      8424      8425      8424      8426      8424      8427
      8427      8428      8427      8429      8427      8430      8430      8431
      8430      8432      8430      8433      8433      8434      8433      8435
      8433      8436      8436      8437      8436      8438      8436      8439
      8439      8440      8439      8441      8439      8442      8443      8447
      8443      8451      8443      8455      8447      8448      8447      8449
      8447      8450      8451      8452      8451      8453      8451      8454
      8455      8456      8455      8457      8455      8458      8443      8444
      8444      8445      8444      8446      8444      8459      8459      8460
      8459      8461      8459      8465      8466      8467      8465      8462
      8462      8466      8462      8463      8462      8464      8467      8468
      8467      8469      8467      8470      8470      8471      8470      8478
      8470      8472      8478      8479      8478      8480      8478      8481
      8472      8473      8473      8475      8473      8474      8475      8476
      8475      8477      8475      8487      8487      8488      8487      8489
      8487      8490      8490      8491      8490      8492      8490      8493
      8493      8494      8493      8495      8493      8496      8496      8497
      8496      8498      8496      8499      8499      8500      8499      8501
      8499      8502      8502      8503      8502      8504      8502      8505
      8505      8506      8505      8507      8507      8508      8507      8509
      8509      8510      8509      8511      8509      8512      8512      8513
      8512      8514      8512      8515      8515      8516      8515      8517
      8515      8518      8518      8519      8518      8520      8518      8521
      8521      8522      8521      8523      8521      8524      8524      8525
      8524      8526      8524      8527      8527      8528      8527      8529
      8527      8530      8530      8531      8530      8532      8530      8533
      8481      8482      8482      8484      8482      8483      8484      8485
      8484      8486      8484      8534      8534      8535      8534      8536
      8534      8537      8537      8538      8537      8539      8537      8540
      8540      8541      8540      8542      8540      8543      8543      8544
      8543      8545      8543      8546      8546      8547      8546      8548
      8546      8549      8549      8550      8549      8551      8549      8552
      8552      8553      8552      8554      8552      8555      8555      8556
      8555      8557      8555      8558      8558      8559      8558      8560
      8558      8561      8561      8562      8561      8563      8561      8564
      8564      8565      8564      8566      8564      8567      8567      8568
      8567      8569      8567      8570      8570      8571      8570      8572
      8570      8573      8573      8574      8573      8575      8573      8576

     16384 !NTHETA: angles
         1         2         3         1         2         4         1         2        17
         1         5         6         1         5         7         1         5         8
         1         9        10         1         9        11         1         9        12
         1        13        14         1        13        15         1        13        16
         2         1         5         2         1         9         2         1        13
         2        17        18         2        17        19         2        17        23
         3         2         4         3         2        17         4         2        17
         5         1         9         5         1        13         6         5         7
         6         5         8         7         5         8         9         1        13
        10         9        11        10         9        12        11         9        12
        14        13        15        14        13        16        15        13        16
        17        23        20        18        17        19        18        17        23
        19        17        23        20        24        25        21        20        22
        21        20        23        21        20        24        22        20        23
        22        20        24        23        20        24        24        25        26
        24        25        27        24        25        28        25        28        29
        25        28        30        25        28        36        26        25        27
        26        25        28        27        25        28        28        30        31
        28        36        37        28        36        38        28        36        39
        29        28        30        29        28        36        30        28        36
        30        31        32        30        31        33        31        33        34
        31        33        35        31        33        45        32        31        33
        33        45        46        33        45        47        33        45        48
        34        33        35        34        33        45        35        33        45
        36        39        40        37        36        38        37        36        39
        38        36        39        39        40        41        39        40        42
        40        42        43        40        42        44        40        42        92
        41        40        42        42        92        93        42        92        94
        42        92        95        43        42        44        43        42        92
        44        42        92        45        48        49        45        48        50
        45        48        51        46        45        47        46        45        48
        47        45        48        48        51        52        48        51        53
        48        51        54        49        48        50        49        48        51
        50        48        51        51        54        55        51        54        56
        51        54        57        52        51        53        52        51        54
        53        51        54        54        57        58        54        57        59
        54        57        60        55        54        56        55        54        57
        56        54        57        57        60        61        57        60        62
        57        60        63        58        57        59        58        57        60
        59        57        60        60        63        64        60        63        65
        61        60        62        61        60        63        62        60        63
        63        65        66        63        65        67        64        63        65
        65        67        68        65        67        69        65        67        70
        66        65        67        67        70        71        67        70        72
        67        70        73        68        67        69        68        67        70
        69        67        70        70        73        74        70        73        75
        70        73        76        71        70        72        71        70        73
        72        70        73        73        76        77        73        76        78
        73        76        79        74        73        75        74        73        76
        75        73        76        76        79        80        76        79        81
        76        79        82        77        76        78        77        76        79
        78        76        79        79        82        83        79        82        84
        79        82        85        80        79        81        80        79        82
        81        79        82        82        85        86        82        85        87
        82        85        88        83        82        84        83        82        85
        84        82        85        85        88        89        85        88        90
        85        88        91        86        85        87        86        85        88
        87        85        88        89        88        90        89        88        91
        90        88        91        92        95        96        92        95        97
        92        95        98        93        92        94        93        92        95
        94        92        95        95        98        99        95        98       100
        95        98       101        96        95        97        96        95        98
        97        95        98        98       101       102        98       101       103
        98       101       104        99        98       100        99        98       101
       100        98       101       101       104       105       101       104       106
       101       104       107       102       101       103       102       101       104
       103       101       104       104       107       108       104       107       109
       104       107       110       105       104       106       105       104       107
       106       104       107       107       110       111       107       110       112
       107       110       113       108       107       109       108       107       110
       109       107       110       110       113       114       110       113       115
       110       113       116       111       110       112       111       110       113
       112       110       113       113       116       117       113       116       118
       113       116       119       114       113       115       114       113       116
       115       113       116       116       119       120       116       119       121
       116       119       122       117       116       118       117       116       119
       118       116       119       119       122       123       119       122       124
       119       122       125       120       119       121       120       119       122
       121       119       122       122       125       126       122       125       127
       122       125       128       123       122       124       123       122       125
       124       122       125       125       128       129       125       128       130
       125       128       131       126       125       127       126       125       128
       127       125       128       128       131       132       128       131       133
       128       131       134       129       128       130       129       128       131
       130       128       131       132       131       133       132       131       134
       133       131       134       135       136       137       135       136       138
       135       136       151       135       139       140       135       139       141
       135       139       142       135       143       144       135       143       145
       135       143       146       135       147       148       135       147       149
       135       147       150       136       135       139       136       135       143
       136       135       147       136       151       152       136       151       153
       136       151       157       137       136       138       137       136       151
       138       136       151       139       135       143       139       135       147
       140       139       141       140       139       142       141       139       142
       143       135       147       144       143       145       144       143       146
       145       143       146       148       147       149       148       147       150
       149       147       150       151       157       154       152       151       153
       152       151       157       153       151       157       154       158       159
       155       154       156       155       154       157       155       154       158
       156       154       157       156       154       158       157       154       158
       158       159       160       158       159       161       158       159       162
       159       162       163       159       162       164       159       162       170
       160       159       161       160       159       162       161       159       162
       162       164       165       162       170       171       162       170       172
       162       170       173       163       162       164       163       162       170
       164       162       170       164       165       166       164       165       167
       165       167       168       165       167       169       165       167       179
       166       165       167       167       179       180       167       179       181
       167       179       182       168       167       169       168       167       179
       169       167       179       170       173       174       171       170       172
       171       170       173       172       170       173       173       174       175
       173       174       176       174       176       177       174       176       178
       174       176       226       175       174       176       176       226       227
       176       226       228       176       226       229       177       176       178
       177       176       226       178       176       226       179       182       183
       179       182       184       179       182       185       180       179       181
       180       179       182       181       179       182       182       185       186
       182       185       187       182       185       188       183       182       184
       183       182       185       184       182       185       185       188       189
       185       188       190       185       188       191       186       185       187
       186       185       188       187       185       188       188       191       192
       188       191       193       188       191       194       189       188       190
       189       188       191       190       188       191       191       194       195
       191       194       196       191       194       197       192       191       193
       192       191       194       193       191       194       194       197       198
       194       197       199       195       194       196       195       194       197
       196       194       197       197       199       200       197       199       201
       198       197       199       199       201       202       199       201       203
       199       201       204       200       199       201       201       204       205
       201       204       206       201       204       207       202       201       203
       202       201       204       203       201       204       204       207       208
       204       207       209       204       207       210       205       204       206
       205       204       207       206       204       207       207       210       211
       207       210       212       207       210       213       208       207       209
       208       207       210       209       207       210       210       213       214
       210       213       215       210       213       216       211       210       212
       211       210       213       212       210       213       213       216       217
       213       216       218       213       216       219       214       213       215
       214       213       216       215       213       216       216       219       220
       216       219       221       216       219       222       217       216       218
       217       216       219       218       216       219       219       222       223
       219       222       224       219       222       225       220       219       221
       220       219       222       221       219       222       223       222       224
       223       222       225       224       222       225       226       229       230
       226       229       231       226       229       232       227       226       228
       227       226       229       228       226       229       229       232       233
       229       232       234       229       232       235       230       229       231
       230       229       232       231       229       232       232       235       236
       232       235       237       232       235       238       233       232       234
       233       232       235       234       232       235       235       238       239
       235       238       240       235       238       241       236       235       237
       236       235       238       237       235       238       238       241       242
       238       241       243       238       241       244       239       238       240
       239       238       241       240       238       241       241       244       245
       241       244       246       241       244       247       242       241       243
       242       241       244       243       241       244       244       247       248
       244       247       249       244       247       250       245       244       246
       245       244       247       246       244       247       247       250       251
       247       250       252       247       250       253       248       247       249
       248       247       250       249       247       250       250       253       254
       250       253       255       250       253       256       251       250       252
       251       250       253       252       250       253       253       256       257
       253       256       258       253       256       259       254       253       255
       254       253       256       255       253       256       256       259       260
       256       259       261       256       259       262       257       256       258
       257       256       259       258       256       259       259       262       263
       259       262       264       259       262       265       260       259       261
       260       259       262       261       259       262       262       265       266
       262       265       267       262       265       268       263       262       264
       263       262       265       264       262       265       266       265       267
       266       265       268       267       265       268       269       270       271
       269       270       272       269       270       285       269       273       274
       269       273       275       269       273       276       269       277       278
       269       277       279       269       277       280       269       281       282
       269       281       283       269       281       284       270       269       273
       270       269       277       270       269       281       270       285       286
       270       285       287       270       285       291       271       270       272
       271       270       285       272       270       285       273       269       277
       273       269       281       274       273       275       274       273       276
       275       273       276       277       269       281       278       277       279
       278       277       280       279       277       280       282       281       283
       282       281       284       283       281       284       285       291       288
       286       285       287       286       285       291       287       285       291
       288       292       293       289       288       290       289       288       291
       289       288       292       290       288       291       290       288       292
       291       288       292       292       293       294       292       293       295
       292       293       296       293       296       297       293       296       298
       293       296       304       294       293       295       294       293       296
       295       293       296       296       298       299       296       304       305
       296       304       306       296       304       307       297       296       298
       297       296       304       298       296       304       298       299       300
       298       299       301       299       301       302       299       301       303
       299       301       313       300       299       301       301       313       314
       301       313       315       301       313       316       302       301       303
       302       301       313       303       301       313       304       307       308
       305       304       306       305       304       307       306       304       307
       307       308       309       307       308       310       308       310       311
       308       310       312       308       310       360       309       308       310
       310       360       361       310       360       362       310       360       363
       311       310       312       311       310       360       312       310       360
       313       316       317       313       316       318       313       316       319
       314       313       315       314       313       316       315       313       316
       316       319       320       316       319       321       316       319       322
       317       316       318       317       316       319       318       316       319
       319       322       323       319       322       324       319       322       325
       320       319       321       320       319       322       321       319       322
       322       325       326       322       325       327       322       325       328
       323       322       324       323       322       325       324       322       325
       325       328       329       325       328       330       325       328       331
       326       325       327       326       325       328       327       325       328
       328       331       332       328       331       333       329       328       330
       329       328       331       330       328       331       331       333       334
       331       333       335       332       331       333       333       335       336
       333       335       337       333       335       338       334       333       335
       335       338       339       335       338       340       335       338       341
       336       335       337       336       335       338       337       335       338
       338       341       342       338       341       343       338       341       344
       339       338       340       339       338       341       340       338       341
       341       344       345       341       344       346       341       344       347
       342       341       343       342       341       344       343       341       344
       344       347       348       344       347       349       344       347       350
       345       344       346       345       344       347       346       344       347
       347       350       351       347       350       352       347       350       353
       348       347       349       348       347       350       349       347       350
       350       353       354       350       353       355       350       353       356
       351       350       352       351       350       353       352       350       353
       353       356       357       353       356       358       353       356       359
       354       353       355       354       353       356       355       353       356
       357       356       358       357       356       359       358       356       359
       360       363       364       360       363       365       360       363       366
       361       360       362       361       360       363       362       360       363
       363       366       367       363       366       368       363       366       369
       364       363       365       364       363       366       365       363       366
       366       369       370       366       369       371       366       369       372
       367       366       368       367       366       369       368       366       369
       369       372       373       369       372       374       369       372       375
       370       369       371       370       369       372       371       369       372
       372       375       376       372       375       377       372       375       378
       373       372       374       373       372       375       374       372       375
       375       378       379       375       378       380       375       378       381
       376       375       377       376       375       378       377       375       378
       378       381       382       378       381       383       378       381       384
       379       378       380       379       378       381       380       378       381
       381       384       385       381       384       386       381       384       387
       382       381       383       382       381       384       383       381       384
       384       387       388       384       387       389       384       387       390
       385       384       386       385       384       387       386       384       387
       387       390       391       387       390       392       387       390       393
       388       387       389       388       387       390       389       387       390
       390       393       394       390       393       395       390       393       396
       391       390       392       391       390       393       392       390       393
       393       396       397       393       396       398       393       396       399
       394       393       395       394       393       396       395       393       396
       396       399       400       396       399       401       396       399       402
       397       396       398       397       396       399       398       396       399
       400       399       401       400       399       402       401       399       402
       403       404       405       403       404       406       403       404       419
       403       407       408       403       407       409       403       407       410
       403       411       412       403       411       413       403       411       414
       403       415       416       403       415       417       403       415       418
       404       403       407       404       403       411       404       403       415
       404       419       420       404       419       421       404       419       425
       405       404       406       405       404       419       406       404       419
       407       403       411       407       403       415       408       407       409
       408       407       410       409       407       410       411       403       415
       412       411       413       412       411       414       413       411       414
       416       415       417       416       415       418       417       415       418
       419       425       422       420       419       421       420       419       425
       421       419       425       422       426       427       423       422       424
       423       422       425       423       422       426       424       422       425
       424       422       426       425       422       426       426       427       428
       426       427       429       426       427       430       427       430       431
       427       430       432       427       430       438       428       427       429
       428       427       430       429       427       430       430       432       433
       430       438       439       430       438       440       430       438       441
       431       430       432       431       430       438       432       430       438
       432       433       434       432       433       435       433       435       436
       433       435       437       433       435       447       434       433       435
       435       447       448       435       447       449       435       447       450
       436       435       437       436       435       447       437       435       447
       438       441       442       439       438       440       439       438       441
       440       438       441       441       442       443       441       442       444
       442       444       445       442       444       446       442       444       494
       443       442       444       444       494       495       444       494       496
       444       494       497       445       444       446       445       444       494
       446       444       494       447       450       451       447       450       452
       447       450       453       448       447       449       448       447       450
       449       447       450       450       453       454       450       453       455
       450       453       456       451       450       452       451       450       453
       452       450       453       453       456       457       453       456       458
       453       456       459       454       453       455       454       453       456
       455       453       456       456       459       460       456       459       461
       456       459       462       457       456       458       457       456       459
       458       456       459       459       462       463       459       462       464
       459       462       465       460       459       461       460       459       462
       461       459       462       462       465       466       462       465       467
       463       462       464       463       462       465       464       462       465
       465       467       468       465       467       469       466       465       467
       467       469       470       467       469       471       467       469       472
       468       467       469       469       472       473       469       472       474
       469       472       475       470       469       471       470       469       472
       471       469       472       472       475       476       472       475       477
       472       475       478       473       472       474       473       472       475
       474       472       475       475       478       479       475       478       480
       475       478       481       476       475       477       476       475       478
       477       475       478       478       481       482       478       481       483
       478       481       484       479       478       480       479       478       481
       480       478       481       481       484       485       481       484       486
       481       484       487       482       481       483       482       481       484
       483       481       484       484       487       488       484       487       489
       484       487       490       485       484       486       485       484       487
       486       484       487       487       490       491       487       490       492
       487       490       493       488       487       489       488       487       490
       489       487       490       491       490       492       491       490       493
       492       490       493       494       497       498       494       497       499
       494       497       500       495       494       496       495       494       497
       496       494       497       497       500       501       497       500       502
       497       500       503       498       497       499       498       497       500
       499       497       500       500       503       504       500       503       505
       500       503       506       501       500       502       501       500       503
       502       500       503       503       506       507       503       506       508
       503       506       509       504       503       505       504       503       506
       505       503       506       506       509       510       506       509       511
       506       509       512       507       506       508       507       506       509
       508       506       509       509       512       513       509       512       514
       509       512       515       510       509       511       510       509       512
       511       509       512       512       515       516       512       515       517
       512       515       518       513       512       514       513       512       515
       514       512       515       515       518       519       515       518       520
       515       518       521       516       515       517       516       515       518
       517       515       518       518       521       522       518       521       523
       518       521       524       519       518       520       519       518       521
       520       518       521       521       524       525       521       524       526
       521       524       527       522       521       523       522       521       524
       523       521       524       524       527       528       524       527       529
       524       527       530       525       524       526       525       524       527
       526       524       527       527       530       531       527       530       532
       527       530       533       528       527       529       528       527       530
       529       527       530       530       533       534       530       533       535
       530       533       536       531       530       532       531       530       533
       532       530       533       534       533       535       534       533       536
       535       533       536       537       538       539       537       538       540
       537       538       553       537       541       542       537       541       543
       537       541       544       537       545       546       537       545       547
       537       545       548       537       549       550       537       549       551
       537       549       552       538       537       541       538       537       545
       538       537       549       538       553       554       538       553       555
       538       553       559       539       538       540       539       538       553
       540       538       553       541       537       545       541       537       549
       542       541       543       542       541       544       543       541       544
       545       537       549       546       545       547       546       545       548
       547       545       548       550       549       551       550       549       552
       551       549       552       553       559       556       554       553       555
       554       553       559       555       553       559       556       560       561
       557       556       558       557       556       559       557       556       560
       558       556       559       558       556       560       559       556       560
       560       561       562       560       561       563       560       561       564
       561       564       565       561       564       566       561       564       572
       562       561       563       562       561       564       563       561       564
       564       566       567       564       572       573       564       572       574
       564       572       575       565       564       566       565       564       572
       566       564       572       566       567       568       566       567       569
       567       569       570       567       569       571       567       569       581
       568       567       569       569       581       582       569       581       583
       569       581       584       570       569       571       570       569       581
       571       569       581       572       575       576       573       572       574
       573       572       575       574       572       575       575       576       577
       575       576       578       576       578       579       576       578       580
       576       578       628       577       576       578       578       628       629
       578       628       630       578       628       631       579       578       580
       579       578       628       580       578       628       581       584       585
       581       584       586       581       584       587       582       581       583
       582       581       584       583       581       584       584       587       588
       584       587       589       584       587       590       585       584       586
       585       584       587       586       584       587       587       590       591
       587       590       592       587       590       593       588       587       589
       588       587       590       589       587       590       590       593       594
       590       593       595       590       593       596       591       590       592
       591       590       593       592       590       593       593       596       597
       593       596       598       593       596       599       594       593       595
       594       593       596       595       593       596       596       599       600
       596       599       601       597       596       598       597       596       599
       598       596       599       599       601       602       599       601       603
       600       599       601       601       603       604       601       603       605
       601       603       606       602       601       603       603       606       607
       603       606       608       603       606       609       604       603       605
       604       603       606       605       603       606       606       609       610
       606       609       611       606       609       612       607       606       608
       607       606       609       608       606       609       609       612       613
       609       612       614       609       612       615       610       609       611
       610       609       612       611       609       612       612       615       616
       612       615       617       612       615       618       613       612       614
       613       612       615       614       612       615       615       618       619
       615       618       620       615       618       621       616       615       617
       616       615       618       617       615       618       618       621       622
       618       621       623       618       621       624       619       618       620
       619       618       621       620       618       621       621       624       625
       621       624       626       621       624       627       622       621       623
       622       621       624       623       621       624       625       624       626
       625       624       627       626       624       627       628       631       632
       628       631       633       628       631       634       629       628       630
       629       628       631       630       628       631       631       634       635
       631       634       636       631       634       637       632       631       633
       632       631       634       633       631       634       634       637       638
       634       637       639       634       637       640       635       634       636
       635       634       637       636       634       637       637       640       641
       637       640       642       637       640       643       638       637       639
       638       637       640       639       637       640       640       643       644
       640       643       645       640       643       646       641       640       642
       641       640       643       642       640       643       643       646       647
       643       646       648       643       646       649       644       643       645
       644       643       646       645       643       646       646       649       650
       646       649       651       646       649       652       647       646       648
       647       646       649       648       646       649       649       652       653
       649       652       654       649       652       655       650       649       651
       650       649       652       651       649       652       652       655       656
       652       655       657       652       655       658       653       652       654
       653       652       655       654       652       655       655       658       659
       655       658       660       655       658       661       656       655       657
       656       655       658       657       655       658       658       661       662
       658       661       663       658       661       664       659       658       660
       659       658       661       660       658       661       661       664       665
       661       664       666       661       664       667       662       661       663
       662       661       664       663       661       664       664       667       668
       664       667       669       664       667       670       665       664       666
       665       664       667       666       664       667       668       667       669
       668       667       670       669       667       670       671       672       673
       671       672       674       671       672       687       671       675       676
       671       675       677       671       675       678       671       679       680
       671       679       681       671       679       682       671       683       684
       671       683       685       671       683       686       672       671       675
       672       671       679       672       671       683       672       687       688
       672       687       689       672       687       693       673       672       674
       673       672       687       674       672       687       675       671       679
       675       671       683       676       675       677       676       675       678
       677       675       678       679       671       683       680       679       681
       680       679       682       681       679       682       684       683       685
       684       683       686       685       683       686       687       693       690
       688       687       689       688       687       693       689       687       693
       690       694       695       691       690       692       691       690       693
       691       690       694       692       690       693       692       690       694
       693       690       694       694       695       696       694       695       697
       694       695       698       695       698       699       695       698       700
       695       698       706       696       695       697       696       695       698
       697       695       698       698       700       701       698       706       707
       698       706       708       698       706       709       699       698       700
       699       698       706       700       698       706       700       701       702
       700       701       703       701       703       704       701       703       705
       701       703       715       702       701       703       703       715       716
       703       715       717       703       715       718       704       703       705
       704       703       715       705       703       715       706       709       710
       707       706       708       707       706       709       708       706       709
       709       710       711       709       710       712       710       712       713
       710       712       714       710       712       762       711       710       712
       712       762       763       712       762       764       712       762       765
       713       712       714       713       712       762       714       712       762
       715       718       719       715       718       720       715       718       721
       716       715       717       716       715       718       717       715       718
       718       721       722       718       721       723       718       721       724
       719       718       720       719       718       721       720       718       721
       721       724       725       721       724       726       721       724       727
       722       721       723       722       721       724       723       721       724
       724       727       728       724       727       729       724       727       730
       725       724       726       725       724       727       726       724       727
       727       730       731       727       730       732       727       730       733
       728       727       729       728       727       730       729       727       730
       730       733       734       730       733       735       731       730       732
       731       730       733       732       730       733       733       735       736
       733       735       737       734       733       735       735       737       738
       735       737       739       735       737       740       736       735       737
       737       740       741       737       740       742       737       740       743
       738       737       739       738       737       740       739       737       740
       740       743       744       740       743       745       740       743       746
       741       740       742       741       740       743       742       740       743
       743       746       747       743       746       748       743       746       749
       744       743       745       744       743       746       745       743       746
       746       749       750       746       749       751       746       749       752
       747       746       748       747       746       749       748       746       749
       749       752       753       749       752       754       749       752       755
       750       749       751       750       749       752       751       749       752
       752       755       756       752       755       757       752       755       758
       753       752       754       753       752       755       754       752       755
       755       758       759       755       758       760       755       758       761
       756       755       757       756       755       758       757       755       758
       759       758       760       759       758       761       760       758       761
       762       765       766       762       765       767       762       765       768
       763       762       764       763       762       765       764       762       765
       765       768       769       765       768       770       765       768       771
       766       765       767       766       765       768       767       765       768
       768       771       772       768       771       773       768       771       774
       769       768       770       769       768       771       770       768       771
       771       774       775       771       774       776       771       774       777
       772       771       773       772       771       774       773       771       774
       774       777       778       774       777       779       774       777       780
       775       774       776       775       774       777       776       774       777
       777       780       781       777       780       782       777       780       783
       778       777       779       778       777       780       779       777       780
       780       783       784       780       783       785       780       783       786
       781       780       782       781       780       783       782       780       783
       783       786       787       783       786       788       783       786       789
       784       783       785       784       783       786       785       783       786
       786       789       790       786       789       791       786       789       792
       787       786       788       787       786       789       788       786       789
       789       792       793       789       792       794       789       792       795
       790       789       791       790       789       792       791       789       792
       792       795       796       792       795       797       792       795       798
       793       792       794       793       792       795       794       792       795
       795       798       799       795       798       800       795       798       801
       796       795       797       796       795       798       797       795       798
       798       801       802       798       801       803       798       801       804
       799       798       800       799       798       801       800       798       801
       802       801       803       802       801       804       803       801       804
       805       806       807       805       806       808       805       806       821
       805       809       810       805       809       811       805       809       812
       805       813       814       805       813       815       805       813       816
       805       817       818       805       817       819       805       817       820
       806       805       809       806       805       813       806       805       817
       806       821       822       806       821       823       806       821       827
       807       806       808       807       806       821       808       806       821
       809       805       813       809       805       817       810       809       811
       810       809       812       811       809       812       813       805       817
       814       813       815       814       813       816       815       813       816
       818       817       819       818       817       820       819       817       820
       821       827       824       822       821       823       822       821       827
       823       821       827       824       828       829       825       824       826
       825       824       827       825       824       828       826       824       827
       826       824       828       827       824       828       828       829       830
       828       829       831       828       829       832       829       832       833
       829       832       834       829       832       840       830       829       831
       830       829       832       831       829       832       832       834       835
       832       840       841       832       840       842       832       840       843
       833       832       834       833       832       840       834       832       840
       834       835       836       834       835       837       835       837       838
       835       837       839       835       837       849       836       835       837
       837       849       850       837       849       851       837       849       852
       838       837       839       838       837       849       839       837       849
       840       843       844       841       840       842       841       840       843
       842       840       843       843       844       845       843       844       846
       844       846       847       844       846       848       844       846       896
       845       844       846       846       896       897       846       896       898
       846       896       899       847       846       848       847       846       896
       848       846       896       849       852       853       849       852       854
       849       852       855       850       849       851       850       849       852
       851       849       852       852       855       856       852       855       857
       852       855       858       853       852       854       853       852       855
       854       852       855       855       858       859       855       858       860
       855       858       861       856       855       857       856       855       858
       857       855       858       858       861       862       858       861       863
       858       861       864       859       858       860       859       858       861
       860       858       861       861       864       865       861       864       866
       861       864       867       862       861       863       862       861       864
       863       861       864       864       867       868       864       867       869
       865       864       866       865       864       867       866       864       867
       867       869       870       867       869       871       868       867       869
       869       871       872       869       871       873       869       871       874
       870       869       871       871       874       875       871       874       876
       871       874       877       872       871       873       872       871       874
       873       871       874       874       877       878       874       877       879
       874       877       880       875       874       876       875       874       877
       876       874       877       877       880       881       877       880       882
       877       880       883       878       877       879       878       877       880
       879       877       880       880       883       884       880       883       885
       880       883       886       881       880       882       881       880       883
       882       880       883       883       886       887       883       886       888
       883       886       889       884       883       885       884       883       886
       885       883       886       886       889       890       886       889       891
       886       889       892       887       886       888       887       886       889
       888       886       889       889       892       893       889       892       894
       889       892       895       890       889       891       890       889       892
       891       889       892       893       892       894       893       892       895
       894       892       895       896       899       900       896       899       901
       896       899       902       897       896       898       897       896       899
       898       896       899       899       902       903       899       902       904
       899       902       905       900       899       901       900       899       902
       901       899       902       902       905       906       902       905       907
       902       905       908       903       902       904       903       902       905
       904       902       905       905       908       909       905       908       910
       905       908       911       906       905       907       906       905       908
       907       905       908       908       911       912       908       911       913
       908       911       914       909       908       910       909       908       911
       910       908       911       911       914       915       911       914       916
       911       914       917       912       911       913       912       911       914
       913       911       914       914       917       918       914       917       919
       914       917       920       915       914       916       915       914       917
       916       914       917       917       920       921       917       920       922
       917       920       923       918       917       919       918       917       920
       919       917       920       920       923       924       920       923       925
       920       923       926       921       920       922       921       920       923
       922       920       923       923       926       927       923       926       928
       923       926       929       924       923       925       924       923       926
       925       923       926       926       929       930       926       929       931
       926       929       932       927       926       928       927       926       929
       928       926       929       929       932       933       929       932       934
       929       932       935       930       929       931       930       929       932
       931       929       932       932       935       936       932       935       937
       932       935       938       933       932       934       933       932       935
       934       932       935       936       935       937       936       935       938
       937       935       938       939       940       941       939       940       942
       939       940       955       939       943       944       939       943       945
       939       943       946       939       947       948       939       947       949
       939       947       950       939       951       952       939       951       953
       939       951       954       940       939       943       940       939       947
       940       939       951       940       955       956       940       955       957
       940       955       961       941       940       942       941       940       955
       942       940       955       943       939       947       943       939       951
       944       943       945       944       943       946       945       943       946
       947       939       951       948       947       949       948       947       950
       949       947       950       952       951       953       952       951       954
       953       951       954       955       961       958       956       955       957
       956       955       961       957       955       961       958       962       963
       959       958       960       959       958       961       959       958       962
       960       958       961       960       958       962       961       958       962
       962       963       964       962       963       965       962       963       966
       963       966       967       963       966       968       963       966       974
       964       963       965       964       963       966       965       963       966
       966       968       969       966       974       975       966       974       976
       966       974       977       967       966       968       967       966       974
       968       966       974       968       969       970       968       969       971
       969       971       972       969       971       973       969       971       983
       970       969       971       971       983       984       971       983       985
       971       983       986       972       971       973       972       971       983
       973       971       983       974       977       978       975       974       976
       975       974       977       976       974       977       977       978       979
       977       978       980       978       980       981       978       980       982
       978       980      1030       979       978       980       980      1030      1031
       980      1030      1032       980      1030      1033       981       980       982
       981       980      1030       982       980      1030       983       986       987
       983       986       988       983       986       989       984       983       985
       984       983       986       985       983       986       986       989       990
       986       989       991       986       989       992       987       986       988
       987       986       989       988       986       989       989       992       993
       989       992       994       989       992       995       990       989       991
       990       989       992       991       989       992       992       995       996
       992       995       997       992       995       998       993       992       994
       993       992       995       994       992       995       995       998       999
       995       998      1000       995       998      1001       996       995       997
       996       995       998       997       995       998       998      1001      1002
       998      1001      1003       999       998      1000       999       998      1001
      1000       998      1001      1001      1003      1004      1001      1003      1005
      1002      1001      1003      1003      1005      1006      1003      1005      1007
      1003      1005      1008      1004      1003      1005      1005      1008      1009
      1005      1008      1010      1005      1008      1011      1006      1005      1007
      1006      1005      1008      1007      1005      1008      1008      1011      1012
      1008      1011      1013      1008      1011      1014      1009      1008      1010
      1009      1008      1011      1010      1008      1011      1011      1014      1015
      1011      1014      1016      1011      1014      1017      1012      1011      1013
      1012      1011      1014      1013      1011      1014      1014      1017      1018
      1014      1017      1019      1014      1017      1020      1015      1014      1016
      1015      1014      1017      1016      1014      1017      1017      1020      1021
      1017      1020      1022      1017      1020      1023      1018      1017      1019
      1018      1017      1020      1019      1017      1020      1020      1023      1024
      1020      1023      1025      1020      1023      1026      1021      1020      1022
      1021      1020      1023      1022      1020      1023      1023      1026      1027
      1023      1026      1028      1023      1026      1029      1024      1023      1025
      1024      1023      1026      1025      1023      1026      1027      1026      1028
      1027      1026      1029      1028      1026      1029      1030      1033      1034
      1030      1033      1035      1030      1033      1036      1031      1030      1032
      1031      1030      1033      1032      1030      1033      1033      1036      1037
      1033      1036      1038      1033      1036      1039      1034      1033      1035
      1034      1033      1036      1035      1033      1036      1036      1039      1040
      1036      1039      1041      1036      1039      1042      1037      1036      1038
      1037      1036      1039      1038      1036      1039      1039      1042      1043
      1039      1042      1044      1039      1042      1045      1040      1039      1041
      1040      1039      1042      1041      1039      1042      1042      1045      1046
      1042      1045      1047      1042      1045      1048      1043      1042      1044
      1043      1042      1045      1044      1042      1045      1045      1048      1049
      1045      1048      1050      1045      1048      1051      1046      1045      1047
      1046      1045      1048      1047      1045      1048      1048      1051      1052
      1048      1051      1053      1048      1051      1054      1049      1048      1050
      1049      1048      1051      1050      1048      1051      1051      1054      1055
      1051      1054      1056      1051      1054      1057      1052      1051      1053
      1052      1051      1054      1053      1051      1054      1054      1057      1058
      1054      1057      1059      1054      1057      1060      1055      1054      1056
      1055      1054      1057      1056      1054      1057      1057      1060      1061
      1057      1060      1062      1057      1060      1063      1058      1057      1059
      1058      1057      1060      1059      1057      1060      1060      1063      1064
      1060      1063      1065      1060      1063      1066      1061      1060      1062
      1061      1060      1063      1062      1060      1063      1063      1066      1067
      1063      1066      1068      1063      1066      1069      1064      1063      1065
      1064      1063      1066      1065      1063      1066      1066      1069      1070
      1066      1069      1071      1066      1069      1072      1067      1066      1068
      1067      1066      1069      1068      1066      1069      1070      1069      1071
      1070      1069      1072      1071      1069      1072      1073      1074      1075
      1073      1074      1076      1073      1074      1089      1073      1077      1078
      1073      1077      1079      1073      1077      1080      1073      1081      1082
      1073      1081      1083      1073      1081      1084      1073      1085      1086
      1073      1085      1087      1073      1085      1088      1074      1073      1077
      1074      1073      1081      1074      1073      1085      1074      1089      1090
      1074      1089      1091      1074      1089      1095      1075      1074      1076
      1075      1074      1089      1076      1074      1089      1077      1073      1081
      1077      1073      1085      1078      1077      1079      1078      1077      1080
      1079      1077      1080      1081      1073      1085      1082      1081      1083
      1082      1081      1084      1083      1081      1084      1086      1085      1087
      1086      1085      1088      1087      1085      1088      1089      1095      1092
      1090      1089      1091      1090      1089      1095      1091      1089      1095
      1092      1096      1097      1093      1092      1094      1093      1092      1095
      1093      1092      1096      1094      1092      1095      1094      1092      1096
      1095      1092      1096      1096      1097      1098      1096      1097      1099
      1096      1097      1100      1097      1100      1101      1097      1100      1102
      1097      1100      1108      1098      1097      1099      1098      1097      1100
      1099      1097      1100      1100      1102      1103      1100      1108      1109
      1100      1108      1110      1100      1108      1111      1101      1100      1102
      1101      1100      1108      1102      1100      1108      1102      1103      1104
      1102      1103      1105      1103      1105      1106      1103      1105      1107
      1103      1105      1117      1104      1103      1105      1105      1117      1118
      1105      1117      1119      1105      1117      1120      1106      1105      1107
      1106      1105      1117      1107      1105      1117      1108      1111      1112
      1109      1108      1110      1109      1108      1111      1110      1108      1111
      1111      1112      1113      1111      1112      1114      1112      1114      1115
      1112      1114      1116      1112      1114      1164      1113      1112      1114
      1114      1164      1165      1114      1164      1166      1114      1164      1167
      1115      1114      1116      1115      1114      1164      1116      1114      1164
      1117      1120      1121      1117      1120      1122      1117      1120      1123
      1118      1117      1119      1118      1117      1120      1119      1117      1120
      1120      1123      1124      1120      1123      1125      1120      1123      1126
      1121      1120      1122      1121      1120      1123      1122      1120      1123
      1123      1126      1127      1123      1126      1128      1123      1126      1129
      1124      1123      1125      1124      1123      1126      1125      1123      1126
      1126      1129      1130      1126      1129      1131      1126      1129      1132
      1127      1126      1128      1127      1126      1129      1128      1126      1129
      1129      1132      1133      1129      1132      1134      1129      1132      1135
      1130      1129      1131      1130      1129      1132      1131      1129      1132
      1132      1135      1136      1132      1135      1137      1133      1132      1134
      1133      1132      1135      1134      1132      1135      1135      1137      1138
      1135      1137      1139      1136      1135      1137      1137      1139      1140
      1137      1139      1141      1137      1139      1142      1138      1137      1139
      1139      1142      1143      1139      1142      1144      1139      1142      1145
      1140      1139      1141      1140      1139      1142      1141      1139      1142
      1142      1145      1146      1142      1145      1147      1142      1145      1148
      1143      1142      1144      1143      1142      1145      1144      1142      1145
      1145      1148      1149      1145      1148      1150      1145      1148      1151
      1146      1145      1147      1146      1145      1148      1147      1145      1148
      1148      1151      1152      1148      1151      1153      1148      1151      1154
      1149      1148      1150      1149      1148      1151      1150      1148      1151
      1151      1154      1155      1151      1154      1156      1151      1154      1157
      1152      1151      1153      1152      1151      1154      1153      1151      1154
      1154      1157      1158      1154      1157      1159      1154      1157      1160
      1155      1154      1156      1155      1154      1157      1156      1154      1157
      1157      1160      1161      1157      1160      1162      1157      1160      1163
      1158      1157      1159      1158      1157      1160      1159      1157      1160
      1161      1160      1162      1161      1160      1163      1162      1160      1163
      1164      1167      1168      1164      1167      1169      1164      1167      1170
      1165      1164      1166      1165      1164      1167      1166      1164      1167
      1167      1170      1171      1167      1170      1172      1167      1170      1173
      1168      1167      1169      1168      1167      1170      1169      1167      1170
      1170      1173      1174      1170      1173      1175      1170      1173      1176
      1171      1170      1172      1171      1170      1173      1172      1170      1173
      1173      1176      1177      1173      1176      1178      1173      1176      1179
      1174      1173      1175      1174      1173      1176      1175      1173      1176
      1176      1179      1180      1176      1179      1181      1176      1179      1182
      1177      1176      1178      1177      1176      1179      1178      1176      1179
      1179      1182      1183      1179      1182      1184      1179      1182      1185
      1180      1179      1181      1180      1179      1182      1181      1179      1182
      1182      1185      1186      1182      1185      1187      1182      1185      1188
      1183      1182      1184      1183      1182      1185      1184      1182      1185
      1185      1188      1189      1185      1188      1190      1185      1188      1191
      1186      1185      1187      1186      1185      1188      1187      1185      1188
      1188      1191      1192      1188      1191      1193      1188      1191      1194
      1189      1188      1190      1189      1188      1191      1190      1188      1191
      1191      1194      1195      1191      1194      1196      1191      1194      1197
      1192      1191      1193      1192      1191      1194      1193      1191      1194
      1194      1197      1198      1194      1197      1199      1194      1197      1200
      1195      1194      1196      1195      1194      1197      1196      1194      1197
      1197      1200      1201      1197      1200      1202      1197      1200      1203
      1198      1197      1199      1198      1197      1200      1199      1197      1200
      1200      1203      1204      1200      1203      1205      1200      1203      1206
      1201      1200      1202      1201      1200      1203      1202      1200      1203
      1204      1203      1205      1204      1203      1206      1205      1203      1206
      1207      1208      1209      1207      1208      1210      1207      1208      1223
      1207      1211      1212      1207      1211      1213      1207      1211      1214
      1207      1215      1216      1207      1215      1217      1207      1215      1218
      1207      1219      1220      1207      1219      1221      1207      1219      1222
      1208      1207      1211      1208      1207      1215      1208      1207      1219
      1208      1223      1224      1208      1223      1225      1208      1223      1229
      1209      1208      1210      1209      1208      1223      1210      1208      1223
      1211      1207      1215      1211      1207      1219      1212      1211      1213
      1212      1211      1214      1213      1211      1214      1215      1207      1219
      1216      1215      1217      1216      1215      1218      1217      1215      1218
      1220      1219      1221      1220      1219      1222      1221      1219      1222
      1223      1229      1226      1224      1223      1225      1224      1223      1229
      1225      1223      1229      1226      1230      1231      1227      1226      1228
      1227      1226      1229      1227      1226      1230      1228      1226      1229
      1228      1226      1230      1229      1226      1230      1230      1231      1232
      1230      1231      1233      1230      1231      1234      1231      1234      1235
      1231      1234      1236      1231      1234      1242      1232      1231      1233
      1232      1231      1234      1233      1231      1234      1234      1236      1237
      1234      1242      1243      1234      1242      1244      1234      1242      1245
      1235      1234      1236      1235      1234      1242      1236      1234      1242
      1236      1237      1238      1236      1237      1239      1237      1239      1240
      1237      1239      1241      1237      1239      1251      1238      1237      1239
      1239      1251      1252      1239      1251      1253      1239      1251      1254
      1240      1239      1241      1240      1239      1251      1241      1239      1251
      1242      1245      1246      1243      1242      1244      1243      1242      1245
      1244      1242      1245      1245      1246      1247      1245      1246      1248
      1246      1248      1249      1246      1248      1250      1246      1248      1298
      1247      1246      1248      1248      1298      1299      1248      1298      1300
      1248      1298      1301      1249      1248      1250      1249      1248      1298
      1250      1248      1298      1251      1254      1255      1251      1254      1256
      1251      1254      1257      1252      1251      1253      1252      1251      1254
      1253      1251      1254      1254      1257      1258      1254      1257      1259
      1254      1257      1260      1255      1254      1256      1255      1254      1257
      1256      1254      1257      1257      1260      1261      1257      1260      1262
      1257      1260      1263      1258      1257      1259      1258      1257      1260
      1259      1257      1260      1260      1263      1264      1260      1263      1265
      1260      1263      1266      1261      1260      1262      1261      1260      1263
      1262      1260      1263      1263      1266      1267      1263      1266      1268
      1263      1266      1269      1264      1263      1265      1264      1263      1266
      1265      1263      1266      1266      1269      1270      1266      1269      1271
      1267      1266      1268      1267      1266      1269      1268      1266      1269
      1269      1271      1272      1269      1271      1273      1270      1269      1271
      1271      1273      1274      1271      1273      1275      1271      1273      1276
      1272      1271      1273      1273      1276      1277      1273      1276      1278
      1273      1276      1279      1274      1273      1275      1274      1273      1276
      1275      1273      1276      1276      1279      1280      1276      1279      1281
      1276      1279      1282      1277      1276      1278      1277      1276      1279
      1278      1276      1279      1279      1282      1283      1279      1282      1284
      1279      1282      1285      1280      1279      1281      1280      1279      1282
      1281      1279      1282      1282      1285      1286      1282      1285      1287
      1282      1285      1288      1283      1282      1284      1283      1282      1285
      1284      1282      1285      1285      1288      1289      1285      1288      1290
      1285      1288      1291      1286      1285      1287      1286      1285      1288
      1287      1285      1288      1288      1291      1292      1288      1291      1293
      1288      1291      1294      1289      1288      1290      1289      1288      1291
      1290      1288      1291      1291      1294      1295      1291      1294      1296
      1291      1294      1297      1292      1291      1293      1292      1291      1294
      1293      1291      1294      1295      1294      1296      1295      1294      1297
      1296      1294      1297      1298      1301      1302      1298      1301      1303
      1298      1301      1304      1299      1298      1300      1299      1298      1301
      1300      1298      1301      1301      1304      1305      1301      1304      1306
      1301      1304      1307      1302      1301      1303      1302      1301      1304
      1303      1301      1304      1304      1307      1308      1304      1307      1309
      1304      1307      1310      1305      1304      1306      1305      1304      1307
      1306      1304      1307      1307      1310      1311      1307      1310      1312
      1307      1310      1313      1308      1307      1309      1308      1307      1310
      1309      1307      1310      1310      1313      1314      1310      1313      1315
      1310      1313      1316      1311      1310      1312      1311      1310      1313
      1312      1310      1313      1313      1316      1317      1313      1316      1318
      1313      1316      1319      1314      1313      1315      1314      1313      1316
      1315      1313      1316      1316      1319      1320      1316      1319      1321
      1316      1319      1322      1317      1316      1318      1317      1316      1319
      1318      1316      1319      1319      1322      1323      1319      1322      1324
      1319      1322      1325      1320      1319      1321      1320      1319      1322
      1321      1319      1322      1322      1325      1326      1322      1325      1327
      1322      1325      1328      1323      1322      1324      1323      1322      1325
      1324      1322      1325      1325      1328      1329      1325      1328      1330
      1325      1328      1331      1326      1325      1327      1326      1325      1328
      1327      1325      1328      1328      1331      1332      1328      1331      1333
      1328      1331      1334      1329      1328      1330      1329      1328      1331
      1330      1328      1331      1331      1334      1335      1331      1334      1336
      1331      1334      1337      1332      1331      1333      1332      1331      1334
      1333      1331      1334      1334      1337      1338      1334      1337      1339
      1334      1337      1340      1335      1334      1336      1335      1334      1337
      1336      1334      1337      1338      1337      1339      1338      1337      1340
      1339      1337      1340      1341      1342      1343      1341      1342      1344
      1341      1342      1357      1341      1345      1346      1341      1345      1347
      1341      1345      1348      1341      1349      1350      1341      1349      1351
      1341      1349      1352      1341      1353      1354      1341      1353      1355
      1341      1353      1356      1342      1341      1345      1342      1341      1349
      1342      1341      1353      1342      1357      1358      1342      1357      1359
      1342      1357      1363      1343      1342      1344      1343      1342      1357
      1344      1342      1357      1345      1341      1349      1345      1341      1353
      1346      1345      1347      1346      1345      1348      1347      1345      1348
      1349      1341      1353      1350      1349      1351      1350      1349      1352
      1351      1349      1352      1354      1353      1355      1354      1353      1356
      1355      1353      1356      1357      1363      1360      1358      1357      1359
      1358      1357      1363      1359      1357      1363      1360      1364      1365
      1361      1360      1362      1361      1360      1363      1361      1360      1364
      1362      1360      1363      1362      1360      1364      1363      1360      1364
      1364      1365      1366      1364      1365      1367      1364      1365      1368
      1365      1368      1369      1365      1368      1370      1365      1368      1376
      1366      1365      1367      1366      1365      1368      1367      1365      1368
      1368      1370      1371      1368      1376      1377      1368      1376      1378
      1368      1376      1379      1369      1368      1370      1369      1368      1376
      1370      1368      1376      1370      1371      1372      1370      1371      1373
      1371      1373      1374      1371      1373      1375      1371      1373      1385
      1372      1371      1373      1373      1385      1386      1373      1385      1387
      1373      1385      1388      1374      1373      1375      1374      1373      1385
      1375      1373      1385      1376      1379      1380      1377      1376      1378
      1377      1376      1379      1378      1376      1379      1379      1380      1381
      1379      1380      1382      1380      1382      1383      1380      1382      1384
      1380      1382      1432      1381      1380      1382      1382      1432      1433
      1382      1432      1434      1382      1432      1435      1383      1382      1384
      1383      1382      1432      1384      1382      1432      1385      1388      1389
      1385      1388      1390      1385      1388      1391      1386      1385      1387
      1386      1385      1388      1387      1385      1388      1388      1391      1392
      1388      1391      1393      1388      1391      1394      1389      1388      1390
      1389      1388      1391      1390      1388      1391      1391      1394      1395
      1391      1394      1396      1391      1394      1397      1392      1391      1393
      1392      1391      1394      1393      1391      1394      1394      1397      1398
      1394      1397      1399      1394      1397      1400      1395      1394      1396
      1395      1394      1397      1396      1394      1397      1397      1400      1401
      1397      1400      1402      1397      1400      1403      1398      1397      1399
      1398      1397      1400      1399      1397      1400      1400      1403      1404
      1400      1403      1405      1401      1400      1402      1401      1400      1403
      1402      1400      1403      1403      1405      1406      1403      1405      1407
      1404      1403      1405      1405      1407      1408      1405      1407      1409
      1405      1407      1410      1406      1405      1407      1407      1410      1411
      1407      1410      1412      1407      1410      1413      1408      1407      1409
      1408      1407      1410      1409      1407      1410      1410      1413      1414
      1410      1413      1415      1410      1413      1416      1411      1410      1412
      1411      1410      1413      1412      1410      1413      1413      1416      1417
      1413      1416      1418      1413      1416      1419      1414      1413      1415
      1414      1413      1416      1415      1413      1416      1416      1419      1420
      1416      1419      1421      1416      1419      1422      1417      1416      1418
      1417      1416      1419      1418      1416      1419      1419      1422      1423
      1419      1422      1424      1419      1422      1425      1420      1419      1421
      1420      1419      1422      1421      1419      1422      1422      1425      1426
      1422      1425      1427      1422      1425      1428      1423      1422      1424
      1423      1422      1425      1424      1422      1425      1425      1428      1429
      1425      1428      1430      1425      1428      1431      1426      1425      1427
      1426      1425      1428      1427      1425      1428      1429      1428      1430
      1429      1428      1431      1430      1428      1431      1432      1435      1436
      1432      1435      1437      1432      1435      1438      1433      1432      1434
      1433      1432      1435      1434      1432      1435      1435      1438      1439
      1435      1438      1440      1435      1438      1441      1436      1435      1437
      1436      1435      1438      1437      1435      1438      1438      1441      1442
      1438      1441      1443      1438      1441      1444      1439      1438      1440
      1439      1438      1441      1440      1438      1441      1441      1444      1445
      1441      1444      1446      1441      1444      1447      1442      1441      1443
      1442      1441      1444      1443      1441      1444      1444      1447      1448
      1444      1447      1449      1444      1447      1450      1445      1444      1446
      1445      1444      1447      1446      1444      1447      1447      1450      1451
      1447      1450      1452      1447      1450      1453      1448      1447      1449
      1448      1447      1450      1449      1447      1450      1450      1453      1454
      1450      1453      1455      1450      1453      1456      1451      1450      1452
      1451      1450      1453      1452      1450      1453      1453      1456      1457
      1453      1456      1458      1453      1456      1459      1454      1453      1455
      1454      1453      1456      1455      1453      1456      1456      1459      1460
      1456      1459      1461      1456      1459      1462      1457      1456      1458
      1457      1456      1459      1458      1456      1459      1459      1462      1463
      1459      1462      1464      1459      1462      1465      1460      1459      1461
      1460      1459      1462      1461      1459      1462      1462      1465      1466
      1462      1465      1467      1462      1465      1468      1463      1462      1464
      1463      1462      1465      1464      1462      1465      1465      1468      1469
      1465      1468      1470      1465      1468      1471      1466      1465      1467
      1466      1465      1468      1467      1465      1468      1468      1471      1472
      1468      1471      1473      1468      1471      1474      1469      1468      1470
      1469      1468      1471      1470      1468      1471      1472      1471      1473
      1472      1471      1474      1473      1471      1474      1475      1476      1477
      1475      1476      1478      1475      1476      1491      1475      1479      1480
      1475      1479      1481      1475      1479      1482      1475      1483      1484
      1475      1483      1485      1475      1483      1486      1475      1487      1488
      1475      1487      1489      1475      1487      1490      1476      1475      1479
      1476      1475      1483      1476      1475      1487      1476      1491      1492
      1476      1491      1493      1476      1491      1497      1477      1476      1478
      1477      1476      1491      1478      1476      1491      1479      1475      1483
      1479      1475      1487      1480      1479      1481      1480      1479      1482
      1481      1479      1482      1483      1475      1487      1484      1483      1485
      1484      1483      1486      1485      1483      1486      1488      1487      1489
      1488      1487      1490      1489      1487      1490      1491      1497      1494
      1492      1491      1493      1492      1491      1497      1493      1491      1497
      1494      1498      1499      1495      1494      1496      1495      1494      1497
      1495      1494      1498      1496      1494      1497      1496      1494      1498
      1497      1494      1498      1498      1499      1500      1498      1499      1501
      1498      1499      1502      1499      1502      1503      1499      1502      1504
      1499      1502      1510      1500      1499      1501      1500      1499      1502
      1501      1499      1502      1502      1504      1505      1502      1510      1511
      1502      1510      1512      1502      1510      1513      1503      1502      1504
      1503      1502      1510      1504      1502      1510      1504      1505      1506
      1504      1505      1507      1505      1507      1508      1505      1507      1509
      1505      1507      1519      1506      1505      1507      1507      1519      1520
      1507      1519      1521      1507      1519      1522      1508      1507      1509
      1508      1507      1519      1509      1507      1519      1510      1513      1514
      1511      1510      1512      1511      1510      1513      1512      1510      1513
      1513      1514      1515      1513      1514      1516      1514      1516      1517
      1514      1516      1518      1514      1516      1566      1515      1514      1516
      1516      1566      1567      1516      1566      1568      1516      1566      1569
      1517      1516      1518      1517      1516      1566      1518      1516      1566
      1519      1522      1523      1519      1522      1524      1519      1522      1525
      1520      1519      1521      1520      1519      1522      1521      1519      1522
      1522      1525      1526      1522      1525      1527      1522      1525      1528
      1523      1522      1524      1523      1522      1525      1524      1522      1525
      1525      1528      1529      1525      1528      1530      1525      1528      1531
      1526      1525      1527      1526      1525      1528      1527      1525      1528
      1528      1531      1532      1528      1531      1533      1528      1531      1534
      1529      1528      1530      1529      1528      1531      1530      1528      1531
      1531      1534      1535      1531      1534      1536      1531      1534      1537
      1532      1531      1533      1532      1531      1534      1533      1531      1534
      1534      1537      1538      1534      1537      1539      1535      1534      1536
      1535      1534      1537      1536      1534      1537      1537      1539      1540
      1537      1539      1541      1538      1537      1539      1539      1541      1542
      1539      1541      1543      1539      1541      1544      1540      1539      1541
      1541      1544      1545      1541      1544      1546      1541      1544      1547
      1542      1541      1543      1542      1541      1544      1543      1541      1544
      1544      1547      1548      1544      1547      1549      1544      1547      1550
      1545      1544      1546      1545      1544      1547      1546      1544      1547
      1547      1550      1551      1547      1550      1552      1547      1550      1553
      1548      1547      1549      1548      1547      1550      1549      1547      1550
      1550      1553      1554      1550      1553      1555      1550      1553      1556
      1551      1550      1552      1551      1550      1553      1552      1550      1553
      1553      1556      1557      1553      1556      1558      1553      1556      1559
      1554      1553      1555      1554      1553      1556      1555      1553      1556
      1556      1559      1560      1556      1559      1561      1556      1559      1562
      1557      1556      1558      1557      1556      1559      1558      1556      1559
      1559      1562      1563      1559      1562      1564      1559      1562      1565
      1560      1559      1561      1560      1559      1562      1561      1559      1562
      1563      1562      1564      1563      1562      1565      1564      1562      1565
      1566      1569      1570      1566      1569      1571      1566      1569      1572
      1567      1566      1568      1567      1566      1569      1568      1566      1569
      1569      1572      1573      1569      1572      1574      1569      1572      1575
      1570      1569      1571      1570      1569      1572      1571      1569      1572
      1572      1575      1576      1572      1575      1577      1572      1575      1578
      1573      1572      1574      1573      1572      1575      1574      1572      1575
      1575      1578      1579      1575      1578      1580      1575      1578      1581
      1576      1575      1577      1576      1575      1578      1577      1575      1578
      1578      1581      1582      1578      1581      1583      1578      1581      1584
      1579      1578      1580      1579      1578      1581      1580      1578      1581
      1581      1584      1585      1581      1584      1586      1581      1584      1587
      1582      1581      1583      1582      1581      1584      1583      1581      1584
      1584      1587      1588      1584      1587      1589      1584      1587      1590
      1585      1584      1586      1585      1584      1587      1586      1584      1587
      1587      1590      1591      1587      1590      1592      1587      1590      1593
      1588      1587      1589      1588      1587      1590      1589      1587      1590
      1590      1593      1594      1590      1593      1595      1590      1593      1596
      1591      1590      1592      1591      1590      1593      1592      1590      1593
      1593      1596      1597      1593      1596      1598      1593      1596      1599
      1594      1593      1595      1594      1593      1596      1595      1593      1596
      1596      1599      1600      1596      1599      1601      1596      1599      1602
      1597      1596      1598      1597      1596      1599      1598      1596      1599
      1599      1602      1603      1599      1602      1604      1599      1602      1605
      1600      1599      1601      1600      1599      1602      1601      1599      1602
      1602      1605      1606      1602      1605      1607      1602      1605      1608
      1603      1602      1604      1603      1602      1605      1604      1602      1605
      1606      1605      1607      1606      1605      1608      1607      1605      1608
      1609      1610      1611      1609      1610      1612      1609      1610      1625
      1609      1613      1614      1609      1613      1615      1609      1613      1616
      1609      1617      1618      1609      1617      1619      1609      1617      1620
      1609      1621      1622      1609      1621      1623      1609      1621      1624
      1610      1609      1613      1610      1609      1617      1610      1609      1621
      1610      1625      1626      1610      1625      1627      1610      1625      1631
      1611      1610      1612      1611      1610      1625      1612      1610      1625
      1613      1609      1617      1613      1609      1621      1614      1613      1615
      1614      1613      1616      1615      1613      1616      1617      1609      1621
      1618      1617      1619      1618      1617      1620      1619      1617      1620
      1622      1621      1623      1622      1621      1624      1623      1621      1624
      1625      1631      1628      1626      1625      1627      1626      1625      1631
      1627      1625      1631      1628      1632      1633      1629      1628      1630
      1629      1628      1631      1629      1628      1632      1630      1628      1631
      1630      1628      1632      1631      1628      1632      1632      1633      1634
      1632      1633      1635      1632      1633      1636      1633      1636      1637
      1633      1636      1638      1633      1636      1644      1634      1633      1635
      1634      1633      1636      1635      1633      1636      1636      1638      1639
      1636      1644      1645      1636      1644      1646      1636      1644      1647
      1637      1636      1638      1637      1636      1644      1638      1636      1644
      1638      1639      1640      1638      1639      1641      1639      1641      1642
      1639      1641      1643      1639      1641      1653      1640      1639      1641
      1641      1653      1654      1641      1653      1655      1641      1653      1656
      1642      1641      1643      1642      1641      1653      1643      1641      1653
      1644      1647      1648      1645      1644      1646      1645      1644      1647
      1646      1644      1647      1647      1648      1649      1647      1648      1650
      1648      1650      1651      1648      1650      1652      1648      1650      1700
      1649      1648      1650      1650      1700      1701      1650      1700      1702
      1650      1700      1703      1651      1650      1652      1651      1650      1700
      1652      1650      1700      1653      1656      1657      1653      1656      1658
      1653      1656      1659      1654      1653      1655      1654      1653      1656
      1655      1653      1656      1656      1659      1660      1656      1659      1661
      1656      1659      1662      1657      1656      1658      1657      1656      1659
      1658      1656      1659      1659      1662      1663      1659      1662      1664
      1659      1662      1665      1660      1659      1661      1660      1659      1662
      1661      1659      1662      1662      1665      1666      1662      1665      1667
      1662      1665      1668      1663      1662      1664      1663      1662      1665
      1664      1662      1665      1665      1668      1669      1665      1668      1670
      1665      1668      1671      1666      1665      1667      1666      1665      1668
      1667      1665      1668      1668      1671      1672      1668      1671      1673
      1669      1668      1670      1669      1668      1671      1670      1668      1671
      1671      1673      1674      1671      1673      1675      1672      1671      1673
      1673      1675      1676      1673      1675      1677      1673      1675      1678
      1674      1673      1675      1675      1678      1679      1675      1678      1680
      1675      1678      1681      1676      1675      1677      1676      1675      1678
      1677      1675      1678      1678      1681      1682      1678      1681      1683
      1678      1681      1684      1679      1678      1680      1679      1678      1681
      1680      1678      1681      1681      1684      1685      1681      1684      1686
      1681      1684      1687      1682      1681      1683      1682      1681      1684
      1683      1681      1684      1684      1687      1688      1684      1687      1689
      1684      1687      1690      1685      1684      1686      1685      1684      1687
      1686      1684      1687      1687      1690      1691      1687      1690      1692
      1687      1690      1693      1688      1687      1689      1688      1687      1690
      1689      1687      1690      1690      1693      1694      1690      1693      1695
      1690      1693      1696      1691      1690      1692      1691      1690      1693
      1692      1690      1693      1693      1696      1697      1693      1696      1698
      1693      1696      1699      1694      1693      1695      1694      1693      1696
      1695      1693      1696      1697      1696      1698      1697      1696      1699
      1698      1696      1699      1700      1703      1704      1700      1703      1705
      1700      1703      1706      1701      1700      1702      1701      1700      1703
      1702      1700      1703      1703      1706      1707      1703      1706      1708
      1703      1706      1709      1704      1703      1705      1704      1703      1706
      1705      1703      1706      1706      1709      1710      1706      1709      1711
      1706      1709      1712      1707      1706      1708      1707      1706      1709
      1708      1706      1709      1709      1712      1713      1709      1712      1714
      1709      1712      1715      1710      1709      1711      1710      1709      1712
      1711      1709      1712      1712      1715      1716      1712      1715      1717
      1712      1715      1718      1713      1712      1714      1713      1712      1715
      1714      1712      1715      1715      1718      1719      1715      1718      1720
      1715      1718      1721      1716      1715      1717      1716      1715      1718
      1717      1715      1718      1718      1721      1722      1718      1721      1723
      1718      1721      1724      1719      1718      1720      1719      1718      1721
      1720      1718      1721      1721      1724      1725      1721      1724      1726
      1721      1724      1727      1722      1721      1723      1722      1721      1724
      1723      1721      1724      1724      1727      1728      1724      1727      1729
      1724      1727      1730      1725      1724      1726      1725      1724      1727
      1726      1724      1727      1727      1730      1731      1727      1730      1732
      1727      1730      1733      1728      1727      1729      1728      1727      1730
      1729      1727      1730      1730      1733      1734      1730      1733      1735
      1730      1733      1736      1731      1730      1732      1731      1730      1733
      1732      1730      1733      1733      1736      1737      1733      1736      1738
      1733      1736      1739      1734      1733      1735      1734      1733      1736
      1735      1733      1736      1736      1739      1740      1736      1739      1741
      1736      1739      1742      1737      1736      1738      1737      1736      1739
      1738      1736      1739      1740      1739      1741      1740      1739      1742
      1741      1739      1742      1743      1744      1745      1743      1744      1746
      1743      1744      1759      1743      1747      1748      1743      1747      1749
      1743      1747      1750      1743      1751      1752      1743      1751      1753
      1743      1751      1754      1743      1755      1756      1743      1755      1757
      1743      1755      1758      1744      1743      1747      1744      1743      1751
      1744      1743      1755      1744      1759      1760      1744      1759      1761
      1744      1759      1765      1745      1744      1746      1745      1744      1759
      1746      1744      1759      1747      1743      1751      1747      1743      1755
      1748      1747      1749      1748      1747      1750      1749      1747      1750
      1751      1743      1755      1752      1751      1753      1752      1751      1754
      1753      1751      1754      1756      1755      1757      1756      1755      1758
      1757      1755      1758      1759      1765      1762      1760      1759      1761
      1760      1759      1765      1761      1759      1765      1762      1766      1767
      1763      1762      1764      1763      1762      1765      1763      1762      1766
      1764      1762      1765      1764      1762      1766      1765      1762      1766
      1766      1767      1768      1766      1767      1769      1766      1767      1770
      1767      1770      1771      1767      1770      1772      1767      1770      1778
      1768      1767      1769      1768      1767      1770      1769      1767      1770
      1770      1772      1773      1770      1778      1779      1770      1778      1780
      1770      1778      1781      1771      1770      1772      1771      1770      1778
      1772      1770      1778      1772      1773      1774      1772      1773      1775
      1773      1775      1776      1773      1775      1777      1773      1775      1787
      1774      1773      1775      1775      1787      1788      1775      1787      1789
      1775      1787      1790      1776      1775      1777      1776      1775      1787
      1777      1775      1787      1778      1781      1782      1779      1778      1780
      1779      1778      1781      1780      1778      1781      1781      1782      1783
      1781      1782      1784      1782      1784      1785      1782      1784      1786
      1782      1784      1834      1783      1782      1784      1784      1834      1835
      1784      1834      1836      1784      1834      1837      1785      1784      1786
      1785      1784      1834      1786      1784      1834      1787      1790      1791
      1787      1790      1792      1787      1790      1793      1788      1787      1789
      1788      1787      1790      1789      1787      1790      1790      1793      1794
      1790      1793      1795      1790      1793      1796      1791      1790      1792
      1791      1790      1793      1792      1790      1793      1793      1796      1797
      1793      1796      1798      1793      1796      1799      1794      1793      1795
      1794      1793      1796      1795      1793      1796      1796      1799      1800
      1796      1799      1801      1796      1799      1802      1797      1796      1798
      1797      1796      1799      1798      1796      1799      1799      1802      1803
      1799      1802      1804      1799      1802      1805      1800      1799      1801
      1800      1799      1802      1801      1799      1802      1802      1805      1806
      1802      1805      1807      1803      1802      1804      1803      1802      1805
      1804      1802      1805      1805      1807      1808      1805      1807      1809
      1806      1805      1807      1807      1809      1810      1807      1809      1811
      1807      1809      1812      1808      1807      1809      1809      1812      1813
      1809      1812      1814      1809      1812      1815      1810      1809      1811
      1810      1809      1812      1811      1809      1812      1812      1815      1816
      1812      1815      1817      1812      1815      1818      1813      1812      1814
      1813      1812      1815      1814      1812      1815      1815      1818      1819
      1815      1818      1820      1815      1818      1821      1816      1815      1817
      1816      1815      1818      1817      1815      1818      1818      1821      1822
      1818      1821      1823      1818      1821      1824      1819      1818      1820
      1819      1818      1821      1820      1818      1821      1821      1824      1825
      1821      1824      1826      1821      1824      1827      1822      1821      1823
      1822      1821      1824      1823      1821      1824      1824      1827      1828
      1824      1827      1829      1824      1827      1830      1825      1824      1826
      1825      1824      1827      1826      1824      1827      1827      1830      1831
      1827      1830      1832      1827      1830      1833      1828      1827      1829
      1828      1827      1830      1829      1827      1830      1831      1830      1832
      1831      1830      1833      1832      1830      1833      1834      1837      1838
      1834      1837      1839      1834      1837      1840      1835      1834      1836
      1835      1834      1837      1836      1834      1837      1837      1840      1841
      1837      1840      1842      1837      1840      1843      1838      1837      1839
      1838      1837      1840      1839      1837      1840      1840      1843      1844
      1840      1843      1845      1840      1843      1846      1841      1840      1842
      1841      1840      1843      1842      1840      1843      1843      1846      1847
      1843      1846      1848      1843      1846      1849      1844      1843      1845
      1844      1843      1846      1845      1843      1846      1846      1849      1850
      1846      1849      1851      1846      1849      1852      1847      1846      1848
      1847      1846      1849      1848      1846      1849      1849      1852      1853
      1849      1852      1854      1849      1852      1855      1850      1849      1851
      1850      1849      1852      1851      1849      1852      1852      1855      1856
      1852      1855      1857      1852      1855      1858      1853      1852      1854
      1853      1852      1855      1854      1852      1855      1855      1858      1859
      1855      1858      1860      1855      1858      1861      1856      1855      1857
      1856      1855      1858      1857      1855      1858      1858      1861      1862
      1858      1861      1863      1858      1861      1864      1859      1858      1860
      1859      1858      1861      1860      1858      1861      1861      1864      1865
      1861      1864      1866      1861      1864      1867      1862      1861      1863
      1862      1861      1864      1863      1861      1864      1864      1867      1868
      1864      1867      1869      1864      1867      1870      1865      1864      1866
      1865      1864      1867      1866      1864      1867      1867      1870      1871
      1867      1870      1872      1867      1870      1873      1868      1867      1869
      1868      1867      1870      1869      1867      1870      1870      1873      1874
      1870      1873      1875      1870      1873      1876      1871      1870      1872
      1871      1870      1873      1872      1870      1873      1874      1873      1875
      1874      1873      1876      1875      1873      1876      1877      1878      1879
      1877      1878      1880      1877      1878      1893      1877      1881      1882
      1877      1881      1883      1877      1881      1884      1877      1885      1886
      1877      1885      1887      1877      1885      1888      1877      1889      1890
      1877      1889      1891      1877      1889      1892      1878      1877      1881
      1878      1877      1885      1878      1877      1889      1878      1893      1894
      1878      1893      1895      1878      1893      1899      1879      1878      1880
      1879      1878      1893      1880      1878      1893      1881      1877      1885
      1881      1877      1889      1882      1881      1883      1882      1881      1884
      1883      1881      1884      1885      1877      1889      1886      1885      1887
      1886      1885      1888      1887      1885      1888      1890      1889      1891
      1890      1889      1892      1891      1889      1892      1893      1899      1896
      1894      1893      1895      1894      1893      1899      1895      1893      1899
      1896      1900      1901      1897      1896      1898      1897      1896      1899
      1897      1896      1900      1898      1896      1899      1898      1896      1900
      1899      1896      1900      1900      1901      1902      1900      1901      1903
      1900      1901      1904      1901      1904      1905      1901      1904      1906
      1901      1904      1912      1902      1901      1903      1902      1901      1904
      1903      1901      1904      1904      1906      1907      1904      1912      1913
      1904      1912      1914      1904      1912      1915      1905      1904      1906
      1905      1904      1912      1906      1904      1912      1906      1907      1908
      1906      1907      1909      1907      1909      1910      1907      1909      1911
      1907      1909      1921      1908      1907      1909      1909      1921      1922
      1909      1921      1923      1909      1921      1924      1910      1909      1911
      1910      1909      1921      1911      1909      1921      1912      1915      1916
      1913      1912      1914      1913      1912      1915      1914      1912      1915
      1915      1916      1917      1915      1916      1918      1916      1918      1919
      1916      1918      1920      1916      1918      1968      1917      1916      1918
      1918      1968      1969      1918      1968      1970      1918      1968      1971
      1919      1918      1920      1919      1918      1968      1920      1918      1968
      1921      1924      1925      1921      1924      1926      1921      1924      1927
      1922      1921      1923      1922      1921      1924      1923      1921      1924
      1924      1927      1928      1924      1927      1929      1924      1927      1930
      1925      1924      1926      1925      1924      1927      1926      1924      1927
      1927      1930      1931      1927      1930      1932      1927      1930      1933
      1928      1927      1929      1928      1927      1930      1929      1927      1930
      1930      1933      1934      1930      1933      1935      1930      1933      1936
      1931      1930      1932      1931      1930      1933      1932      1930      1933
      1933      1936      1937      1933      1936      1938      1933      1936      1939
      1934      1933      1935      1934      1933      1936      1935      1933      1936
      1936      1939      1940      1936      1939      1941      1937      1936      1938
      1937      1936      1939      1938      1936      1939      1939      1941      1942
      1939      1941      1943      1940      1939      1941      1941      1943      1944
      1941      1943      1945      1941      1943      1946      1942      1941      1943
      1943      1946      1947      1943      1946      1948      1943      1946      1949
      1944      1943      1945      1944      1943      1946      1945      1943      1946
      1946      1949      1950      1946      1949      1951      1946      1949      1952
      1947      1946      1948      1947      1946      1949      1948      1946      1949
      1949      1952      1953      1949      1952      1954      1949      1952      1955
      1950      1949      1951      1950      1949      1952      1951      1949      1952
      1952      1955      1956      1952      1955      1957      1952      1955      1958
      1953      1952      1954      1953      1952      1955      1954      1952      1955
      1955      1958      1959      1955      1958      1960      1955      1958      1961
      1956      1955      1957      1956      1955      1958      1957      1955      1958
      1958      1961      1962      1958      1961      1963      1958      1961      1964
      1959      1958      1960      1959      1958      1961      1960      1958      1961
      1961      1964      1965      1961      1964      1966      1961      1964      1967
      1962      1961      1963      1962      1961      1964      1963      1961      1964
      1965      1964      1966      1965      1964      1967      1966      1964      1967
      1968      1971      1972      1968      1971      1973      1968      1971      1974
      1969      1968      1970      1969      1968      1971      1970      1968      1971
      1971      1974      1975      1971      1974      1976      1971      1974      1977
      1972      1971      1973      1972      1971      1974      1973      1971      1974
      1974      1977      1978      1974      1977      1979      1974      1977      1980
      1975      1974      1976      1975      1974      1977      1976      1974      1977
      1977      1980      1981      1977      1980      1982      1977      1980      1983
      1978      1977      1979      1978      1977      1980      1979      1977      1980
      1980      1983      1984      1980      1983      1985      1980      1983      1986
      1981      1980      1982      1981      1980      1983      1982      1980      1983
      1983      1986      1987      1983      1986      1988      1983      1986      1989
      1984      1983      1985      1984      1983      1986      1985      1983      1986
      1986      1989      1990      1986      1989      1991      1986      1989      1992
      1987      1986      1988      1987      1986      1989      1988      1986      1989
      1989      1992      1993      1989      1992      1994      1989      1992      1995
      1990      1989      1991      1990      1989      1992      1991      1989      1992
      1992      1995      1996      1992      1995      1997      1992      1995      1998
      1993      1992      1994      1993      1992      1995      1994      1992      1995
      1995      1998      1999      1995      1998      2000      1995      1998      2001
      1996      1995      1997      1996      1995      1998      1997      1995      1998
      1998      2001      2002      1998      2001      2003      1998      2001      2004
      1999      1998      2000      1999      1998      2001      2000      1998      2001
      2001      2004      2005      2001      2004      2006      2001      2004      2007
      2002      2001      2003      2002      2001      2004      2003      2001      2004
      2004      2007      2008      2004      2007      2009      2004      2007      2010
      2005      2004      2006      2005      2004      2007      2006      2004      2007
      2008      2007      2009      2008      2007      2010      2009      2007      2010
      2011      2012      2013      2011      2012      2014      2011      2012      2027
      2011      2015      2016      2011      2015      2017      2011      2015      2018
      2011      2019      2020      2011      2019      2021      2011      2019      2022
      2011      2023      2024      2011      2023      2025      2011      2023      2026
      2012      2011      2015      2012      2011      2019      2012      2011      2023
      2012      2027      2028      2012      2027      2029      2012      2027      2033
      2013      2012      2014      2013      2012      2027      2014      2012      2027
      2015      2011      2019      2015      2011      2023      2016      2015      2017
      2016      2015      2018      2017      2015      2018      2019      2011      2023
      2020      2019      2021      2020      2019      2022      2021      2019      2022
      2024      2023      2025      2024      2023      2026      2025      2023      2026
      2027      2033      2030      2028      2027      2029      2028      2027      2033
      2029      2027      2033      2030      2034      2035      2031      2030      2032
      2031      2030      2033      2031      2030      2034      2032      2030      2033
      2032      2030      2034      2033      2030      2034      2034      2035      2036
      2034      2035      2037      2034      2035      2038      2035      2038      2039
      2035      2038      2040      2035      2038      2046      2036      2035      2037
      2036      2035      2038      2037      2035      2038      2038      2040      2041
      2038      2046      2047      2038      2046      2048      2038      2046      2049
      2039      2038      2040      2039      2038      2046      2040      2038      2046
      2040      2041      2042      2040      2041      2043      2041      2043      2044
      2041      2043      2045      2041      2043      2055      2042      2041      2043
      2043      2055      2056      2043      2055      2057      2043      2055      2058
      2044      2043      2045      2044      2043      2055      2045      2043      2055
      2046      2049      2050      2047      2046      2048      2047      2046      2049
      2048      2046      2049      2049      2050      2051      2049      2050      2052
      2050      2052      2053      2050      2052      2054      2050      2052      2102
      2051      2050      2052      2052      2102      2103      2052      2102      2104
      2052      2102      2105      2053      2052      2054      2053      2052      2102
      2054      2052      2102      2055      2058      2059      2055      2058      2060
      2055      2058      2061      2056      2055      2057      2056      2055      2058
      2057      2055      2058      2058      2061      2062      2058      2061      2063
      2058      2061      2064      2059      2058      2060      2059      2058      2061
      2060      2058      2061      2061      2064      2065      2061      2064      2066
      2061      2064      2067      2062      2061      2063      2062      2061      2064
      2063      2061      2064      2064      2067      2068      2064      2067      2069
      2064      2067      2070      2065      2064      2066      2065      2064      2067
      2066      2064      2067      2067      2070      2071      2067      2070      2072
      2067      2070      2073      2068      2067      2069      2068      2067      2070
      2069      2067      2070      2070      2073      2074      2070      2073      2075
      2071      2070      2072      2071      2070      2073      2072      2070      2073
      2073      2075      2076      2073      2075      2077      2074      2073      2075
      2075      2077      2078      2075      2077      2079      2075      2077      2080
      2076      2075      2077      2077      2080      2081      2077      2080      2082
      2077      2080      2083      2078      2077      2079      2078      2077      2080
      2079      2077      2080      2080      2083      2084      2080      2083      2085
      2080      2083      2086      2081      2080      2082      2081      2080      2083
      2082      2080      2083      2083      2086      2087      2083      2086      2088
      2083      2086      2089      2084      2083      2085      2084      2083      2086
      2085      2083      2086      2086      2089      2090      2086      2089      2091
      2086      2089      2092      2087      2086      2088      2087      2086      2089
      2088      2086      2089      2089      2092      2093      2089      2092      2094
      2089      2092      2095      2090      2089      2091      2090      2089      2092
      2091      2089      2092      2092      2095      2096      2092      2095      2097
      2092      2095      2098      2093      2092      2094      2093      2092      2095
      2094      2092      2095      2095      2098      2099      2095      2098      2100
      2095      2098      2101      2096      2095      2097      2096      2095      2098
      2097      2095      2098      2099      2098      2100      2099      2098      2101
      2100      2098      2101      2102      2105      2106      2102      2105      2107
      2102      2105      2108      2103      2102      2104      2103      2102      2105
      2104      2102      2105      2105      2108      2109      2105      2108      2110
      2105      2108      2111      2106      2105      2107      2106      2105      2108
      2107      2105      2108      2108      2111      2112      2108      2111      2113
      2108      2111      2114      2109      2108      2110      2109      2108      2111
      2110      2108      2111      2111      2114      2115      2111      2114      2116
      2111      2114      2117      2112      2111      2113      2112      2111      2114
      2113      2111      2114      2114      2117      2118      2114      2117      2119
      2114      2117      2120      2115      2114      2116      2115      2114      2117
      2116      2114      2117      2117      2120      2121      2117      2120      2122
      2117      2120      2123      2118      2117      2119      2118      2117      2120
      2119      2117      2120      2120      2123      2124      2120      2123      2125
      2120      2123      2126      2121      2120      2122      2121      2120      2123
      2122      2120      2123      2123      2126      2127      2123      2126      2128
      2123      2126      2129      2124      2123      2125      2124      2123      2126
      2125      2123      2126      2126      2129      2130      2126      2129      2131
      2126      2129      2132      2127      2126      2128      2127      2126      2129
      2128      2126      2129      2129      2132      2133      2129      2132      2134
      2129      2132      2135      2130      2129      2131      2130      2129      2132
      2131      2129      2132      2132      2135      2136      2132      2135      2137
      2132      2135      2138      2133      2132      2134      2133      2132      2135
      2134      2132      2135      2135      2138      2139      2135      2138      2140
      2135      2138      2141      2136      2135      2137      2136      2135      2138
      2137      2135      2138      2138      2141      2142      2138      2141      2143
      2138      2141      2144      2139      2138      2140      2139      2138      2141
      2140      2138      2141      2142      2141      2143      2142      2141      2144
      2143      2141      2144      2145      2146      2147      2145      2146      2148
      2145      2146      2161      2145      2149      2150      2145      2149      2151
      2145      2149      2152      2145      2153      2154      2145      2153      2155
      2145      2153      2156      2145      2157      2158      2145      2157      2159
      2145      2157      2160      2146      2145      2149      2146      2145      2153
      2146      2145      2157      2146      2161      2162      2146      2161      2163
      2146      2161      2167      2147      2146      2148      2147      2146      2161
      2148      2146      2161      2149      2145      2153      2149      2145      2157
      2150      2149      2151      2150      2149      2152      2151      2149      2152
      2153      2145      2157      2154      2153      2155      2154      2153      2156
      2155      2153      2156      2158      2157      2159      2158      2157      2160
      2159      2157      2160      2161      2167      2164      2162      2161      2163
      2162      2161      2167      2163      2161      2167      2164      2168      2169
      2165      2164      2166      2165      2164      2167      2165      2164      2168
      2166      2164      2167      2166      2164      2168      2167      2164      2168
      2168      2169      2170      2168      2169      2171      2168      2169      2172
      2169      2172      2173      2169      2172      2174      2169      2172      2180
      2170      2169      2171      2170      2169      2172      2171      2169      2172
      2172      2174      2175      2172      2180      2181      2172      2180      2182
      2172      2180      2183      2173      2172      2174      2173      2172      2180
      2174      2172      2180      2174      2175      2176      2174      2175      2177
      2175      2177      2178      2175      2177      2179      2175      2177      2189
      2176      2175      2177      2177      2189      2190      2177      2189      2191
      2177      2189      2192      2178      2177      2179      2178      2177      2189
      2179      2177      2189      2180      2183      2184      2181      2180      2182
      2181      2180      2183      2182      2180      2183      2183      2184      2185
      2183      2184      2186      2184      2186      2187      2184      2186      2188
      2184      2186      2236      2185      2184      2186      2186      2236      2237
      2186      2236      2238      2186      2236      2239      2187      2186      2188
      2187      2186      2236      2188      2186      2236      2189      2192      2193
      2189      2192      2194      2189      2192      2195      2190      2189      2191
      2190      2189      2192      2191      2189      2192      2192      2195      2196
      2192      2195      2197      2192      2195      2198      2193      2192      2194
      2193      2192      2195      2194      2192      2195      2195      2198      2199
      2195      2198      2200      2195      2198      2201      2196      2195      2197
      2196      2195      2198      2197      2195      2198      2198      2201      2202
      2198      2201      2203      2198      2201      2204      2199      2198      2200
      2199      2198      2201      2200      2198      2201      2201      2204      2205
      2201      2204      2206      2201      2204      2207      2202      2201      2203
      2202      2201      2204      2203      2201      2204      2204      2207      2208
      2204      2207      2209      2205      2204      2206      2205      2204      2207
      2206      2204      2207      2207      2209      2210      2207      2209      2211
      2208      2207      2209      2209      2211      2212      2209      2211      2213
      2209      2211      2214      2210      2209      2211      2211      2214      2215
      2211      2214      2216      2211      2214      2217      2212      2211      2213
      2212      2211      2214      2213      2211      2214      2214      2217      2218
      2214      2217      2219      2214      2217      2220      2215      2214      2216
      2215      2214      2217      2216      2214      2217      2217      2220      2221
      2217      2220      2222      2217      2220      2223      2218      2217      2219
      2218      2217      2220      2219      2217      2220      2220      2223      2224
      2220      2223      2225      2220      2223      2226      2221      2220      2222
      2221      2220      2223      2222      2220      2223      2223      2226      2227
      2223      2226      2228      2223      2226      2229      2224      2223      2225
      2224      2223      2226      2225      2223      2226      2226      2229      2230
      2226      2229      2231      2226      2229      2232      2227      2226      2228
      2227      2226      2229      2228      2226      2229      2229      2232      2233
      2229      2232      2234      2229      2232      2235      2230      2229      2231
      2230      2229      2232      2231      2229      2232      2233      2232      2234
      2233      2232      2235      2234      2232      2235      2236      2239      2240
      2236      2239      2241      2236      2239      2242      2237      2236      2238
      2237      2236      2239      2238      2236      2239      2239      2242      2243
      2239      2242      2244      2239      2242      2245      2240      2239      2241
      2240      2239      2242      2241      2239      2242      2242      2245      2246
      2242      2245      2247      2242      2245      2248      2243      2242      2244
      2243      2242      2245      2244      2242      2245      2245      2248      2249
      2245      2248      2250      2245      2248      2251      2246      2245      2247
      2246      2245      2248      2247      2245      2248      2248      2251      2252
      2248      2251      2253      2248      2251      2254      2249      2248      2250
      2249      2248      2251      2250      2248      2251      2251      2254      2255
      2251      2254      2256      2251      2254      2257      2252      2251      2253
      2252      2251      2254      2253      2251      2254      2254      2257      2258
      2254      2257      2259      2254      2257      2260      2255      2254      2256
      2255      2254      2257      2256      2254      2257      2257      2260      2261
      2257      2260      2262      2257      2260      2263      2258      2257      2259
      2258      2257      2260      2259      2257      2260      2260      2263      2264
      2260      2263      2265      2260      2263      2266      2261      2260      2262
      2261      2260      2263      2262      2260      2263      2263      2266      2267
      2263      2266      2268      2263      2266      2269      2264      2263      2265
      2264      2263      2266      2265      2263      2266      2266      2269      2270
      2266      2269      2271      2266      2269      2272      2267      2266      2268
      2267      2266      2269      2268      2266      2269      2269      2272      2273
      2269      2272      2274      2269      2272      2275      2270      2269      2271
      2270      2269      2272      2271      2269      2272      2272      2275      2276
      2272      2275      2277      2272      2275      2278      2273      2272      2274
      2273      2272      2275      2274      2272      2275      2276      2275      2277
      2276      2275      2278      2277      2275      2278      2279      2280      2281
      2279      2280      2282      2279      2280      2295      2279      2283      2284
      2279      2283      2285      2279      2283      2286      2279      2287      2288
      2279      2287      2289      2279      2287      2290      2279      2291      2292
      2279      2291      2293      2279      2291      2294      2280      2279      2283
      2280      2279      2287      2280      2279      2291      2280      2295      2296
      2280      2295      2297      2280      2295      2301      2281      2280      2282
      2281      2280      2295      2282      2280      2295      2283      2279      2287
      2283      2279      2291      2284      2283      2285      2284      2283      2286
      2285      2283      2286      2287      2279      2291      2288      2287      2289
      2288      2287      2290      2289      2287      2290      2292      2291      2293
      2292      2291      2294      2293      2291      2294      2295      2301      2298
      2296      2295      2297      2296      2295      2301      2297      2295      2301
      2298      2302      2303      2299      2298      2300      2299      2298      2301
      2299      2298      2302      2300      2298      2301      2300      2298      2302
      2301      2298      2302      2302      2303      2304      2302      2303      2305
      2302      2303      2306      2303      2306      2307      2303      2306      2308
      2303      2306      2314      2304      2303      2305      2304      2303      2306
      2305      2303      2306      2306      2308      2309      2306      2314      2315
      2306      2314      2316      2306      2314      2317      2307      2306      2308
      2307      2306      2314      2308      2306      2314      2308      2309      2310
      2308      2309      2311      2309      2311      2312      2309      2311      2313
      2309      2311      2323      2310      2309      2311      2311      2323      2324
      2311      2323      2325      2311      2323      2326      2312      2311      2313
      2312      2311      2323      2313      2311      2323      2314      2317      2318
      2315      2314      2316      2315      2314      2317      2316      2314      2317
      2317      2318      2319      2317      2318      2320      2318      2320      2321
      2318      2320      2322      2318      2320      2370      2319      2318      2320
      2320      2370      2371      2320      2370      2372      2320      2370      2373
      2321      2320      2322      2321      2320      2370      2322      2320      2370
      2323      2326      2327      2323      2326      2328      2323      2326      2329
      2324      2323      2325      2324      2323      2326      2325      2323      2326
      2326      2329      2330      2326      2329      2331      2326      2329      2332
      2327      2326      2328      2327      2326      2329      2328      2326      2329
      2329      2332      2333      2329      2332      2334      2329      2332      2335
      2330      2329      2331      2330      2329      2332      2331      2329      2332
      2332      2335      2336      2332      2335      2337      2332      2335      2338
      2333      2332      2334      2333      2332      2335      2334      2332      2335
      2335      2338      2339      2335      2338      2340      2335      2338      2341
      2336      2335      2337      2336      2335      2338      2337      2335      2338
      2338      2341      2342      2338      2341      2343      2339      2338      2340
      2339      2338      2341      2340      2338      2341      2341      2343      2344
      2341      2343      2345      2342      2341      2343      2343      2345      2346
      2343      2345      2347      2343      2345      2348      2344      2343      2345
      2345      2348      2349      2345      2348      2350      2345      2348      2351
      2346      2345      2347      2346      2345      2348      2347      2345      2348
      2348      2351      2352      2348      2351      2353      2348      2351      2354
      2349      2348      2350      2349      2348      2351      2350      2348      2351
      2351      2354      2355      2351      2354      2356      2351      2354      2357
      2352      2351      2353      2352      2351      2354      2353      2351      2354
      2354      2357      2358      2354      2357      2359      2354      2357      2360
      2355      2354      2356      2355      2354      2357      2356      2354      2357
      2357      2360      2361      2357      2360      2362      2357      2360      2363
      2358      2357      2359      2358      2357      2360      2359      2357      2360
      2360      2363      2364      2360      2363      2365      2360      2363      2366
      2361      2360      2362      2361      2360      2363      2362      2360      2363
      2363      2366      2367      2363      2366      2368      2363      2366      2369
      2364      2363      2365      2364      2363      2366      2365      2363      2366
      2367      2366      2368      2367      2366      2369      2368      2366      2369
      2370      2373      2374      2370      2373      2375      2370      2373      2376
      2371      2370      2372      2371      2370      2373      2372      2370      2373
      2373      2376      2377      2373      2376      2378      2373      2376      2379
      2374      2373      2375      2374      2373      2376      2375      2373      2376
      2376      2379      2380      2376      2379      2381      2376      2379      2382
      2377      2376      2378      2377      2376      2379      2378      2376      2379
      2379      2382      2383      2379      2382      2384      2379      2382      2385
      2380      2379      2381      2380      2379      2382      2381      2379      2382
      2382      2385      2386      2382      2385      2387      2382      2385      2388
      2383      2382      2384      2383      2382      2385      2384      2382      2385
      2385      2388      2389      2385      2388      2390      2385      2388      2391
      2386      2385      2387      2386      2385      2388      2387      2385      2388
      2388      2391      2392      2388      2391      2393      2388      2391      2394
      2389      2388      2390      2389      2388      2391      2390      2388      2391
      2391      2394      2395      2391      2394      2396      2391      2394      2397
      2392      2391      2393      2392      2391      2394      2393      2391      2394
      2394      2397      2398      2394      2397      2399      2394      2397      2400
      2395      2394      2396      2395      2394      2397      2396      2394      2397
      2397      2400      2401      2397      2400      2402      2397      2400      2403
      2398      2397      2399      2398      2397      2400      2399      2397      2400
      2400      2403      2404      2400      2403      2405      2400      2403      2406
      2401      2400      2402      2401      2400      2403      2402      2400      2403
      2403      2406      2407      2403      2406      2408      2403      2406      2409
      2404      2403      2405      2404      2403      2406      2405      2403      2406
      2406      2409      2410      2406      2409      2411      2406      2409      2412
      2407      2406      2408      2407      2406      2409      2408      2406      2409
      2410      2409      2411      2410      2409      2412      2411      2409      2412
      2413      2414      2415      2413      2414      2416      2413      2414      2429
      2413      2417      2418      2413      2417      2419      2413      2417      2420
      2413      2421      2422      2413      2421      2423      2413      2421      2424
      2413      2425      2426      2413      2425      2427      2413      2425      2428
      2414      2413      2417      2414      2413      2421      2414      2413      2425
      2414      2429      2430      2414      2429      2431      2414      2429      2435
      2415      2414      2416      2415      2414      2429      2416      2414      2429
      2417      2413      2421      2417      2413      2425      2418      2417      2419
      2418      2417      2420      2419      2417      2420      2421      2413      2425
      2422      2421      2423      2422      2421      2424      2423      2421      2424
      2426      2425      2427      2426      2425      2428      2427      2425      2428
      2429      2435      2432      2430      2429      2431      2430      2429      2435
      2431      2429      2435      2432      2436      2437      2433      2432      2434
      2433      2432      2435      2433      2432      2436      2434      2432      2435
      2434      2432      2436      2435      2432      2436      2436      2437      2438
      2436      2437      2439      2436      2437      2440      2437      2440      2441
      2437      2440      2442      2437      2440      2448      2438      2437      2439
      2438      2437      2440      2439      2437      2440      2440      2442      2443
      2440      2448      2449      2440      2448      2450      2440      2448      2451
      2441      2440      2442      2441      2440      2448      2442      2440      2448
      2442      2443      2444      2442      2443      2445      2443      2445      2446
      2443      2445      2447      2443      2445      2457      2444      2443      2445
      2445      2457      2458      2445      2457      2459      2445      2457      2460
      2446      2445      2447      2446      2445      2457      2447      2445      2457
      2448      2451      2452      2449      2448      2450      2449      2448      2451
      2450      2448      2451      2451      2452      2453      2451      2452      2454
      2452      2454      2455      2452      2454      2456      2452      2454      2504
      2453      2452      2454      2454      2504      2505      2454      2504      2506
      2454      2504      2507      2455      2454      2456      2455      2454      2504
      2456      2454      2504      2457      2460      2461      2457      2460      2462
      2457      2460      2463      2458      2457      2459      2458      2457      2460
      2459      2457      2460      2460      2463      2464      2460      2463      2465
      2460      2463      2466      2461      2460      2462      2461      2460      2463
      2462      2460      2463      2463      2466      2467      2463      2466      2468
      2463      2466      2469      2464      2463      2465      2464      2463      2466
      2465      2463      2466      2466      2469      2470      2466      2469      2471
      2466      2469      2472      2467      2466      2468      2467      2466      2469
      2468      2466      2469      2469      2472      2473      2469      2472      2474
      2469      2472      2475      2470      2469      2471      2470      2469      2472
      2471      2469      2472      2472      2475      2476      2472      2475      2477
      2473      2472      2474      2473      2472      2475      2474      2472      2475
      2475      2477      2478      2475      2477      2479      2476      2475      2477
      2477      2479      2480      2477      2479      2481      2477      2479      2482
      2478      2477      2479      2479      2482      2483      2479      2482      2484
      2479      2482      2485      2480      2479      2481      2480      2479      2482
      2481      2479      2482      2482      2485      2486      2482      2485      2487
      2482      2485      2488      2483      2482      2484      2483      2482      2485
      2484      2482      2485      2485      2488      2489      2485      2488      2490
      2485      2488      2491      2486      2485      2487      2486      2485      2488
      2487      2485      2488      2488      2491      2492      2488      2491      2493
      2488      2491      2494      2489      2488      2490      2489      2488      2491
      2490      2488      2491      2491      2494      2495      2491      2494      2496
      2491      2494      2497      2492      2491      2493      2492      2491      2494
      2493      2491      2494      2494      2497      2498      2494      2497      2499
      2494      2497      2500      2495      2494      2496      2495      2494      2497
      2496      2494      2497      2497      2500      2501      2497      2500      2502
      2497      2500      2503      2498      2497      2499      2498      2497      2500
      2499      2497      2500      2501      2500      2502      2501      2500      2503
      2502      2500      2503      2504      2507      2508      2504      2507      2509
      2504      2507      2510      2505      2504      2506      2505      2504      2507
      2506      2504      2507      2507      2510      2511      2507      2510      2512
      2507      2510      2513      2508      2507      2509      2508      2507      2510
      2509      2507      2510      2510      2513      2514      2510      2513      2515
      2510      2513      2516      2511      2510      2512      2511      2510      2513
      2512      2510      2513      2513      2516      2517      2513      2516      2518
      2513      2516      2519      2514      2513      2515      2514      2513      2516
      2515      2513      2516      2516      2519      2520      2516      2519      2521
      2516      2519      2522      2517      2516      2518      2517      2516      2519
      2518      2516      2519      2519      2522      2523      2519      2522      2524
      2519      2522      2525      2520      2519      2521      2520      2519      2522
      2521      2519      2522      2522      2525      2526      2522      2525      2527
      2522      2525      2528      2523      2522      2524      2523      2522      2525
      2524      2522      2525      2525      2528      2529      2525      2528      2530
      2525      2528      2531      2526      2525      2527      2526      2525      2528
      2527      2525      2528      2528      2531      2532      2528      2531      2533
      2528      2531      2534      2529      2528      2530      2529      2528      2531
      2530      2528      2531      2531      2534      2535      2531      2534      2536
      2531      2534      2537      2532      2531      2533      2532      2531      2534
      2533      2531      2534      2534      2537      2538      2534      2537      2539
      2534      2537      2540      2535      2534      2536      2535      2534      2537
      2536      2534      2537      2537      2540      2541      2537      2540      2542
      2537      2540      2543      2538      2537      2539      2538      2537      2540
      2539      2537      2540      2540      2543      2544      2540      2543      2545
      2540      2543      2546      2541      2540      2542      2541      2540      2543
      2542      2540      2543      2544      2543      2545      2544      2543      2546
      2545      2543      2546      2547      2548      2549      2547      2548      2550
      2547      2548      2563      2547      2551      2552      2547      2551      2553
      2547      2551      2554      2547      2555      2556      2547      2555      2557
      2547      2555      2558      2547      2559      2560      2547      2559      2561
      2547      2559      2562      2548      2547      2551      2548      2547      2555
      2548      2547      2559      2548      2563      2564      2548      2563      2565
      2548      2563      2569      2549      2548      2550      2549      2548      2563
      2550      2548      2563      2551      2547      2555      2551      2547      2559
      2552      2551      2553      2552      2551      2554      2553      2551      2554
      2555      2547      2559      2556      2555      2557      2556      2555      2558
      2557      2555      2558      2560      2559      2561      2560      2559      2562
      2561      2559      2562      2563      2569      2566      2564      2563      2565
      2564      2563      2569      2565      2563      2569      2566      2570      2571
      2567      2566      2568      2567      2566      2569      2567      2566      2570
      2568      2566      2569      2568      2566      2570      2569      2566      2570
      2570      2571      2572      2570      2571      2573      2570      2571      2574
      2571      2574      2575      2571      2574      2576      2571      2574      2582
      2572      2571      2573      2572      2571      2574      2573      2571      2574
      2574      2576      2577      2574      2582      2583      2574      2582      2584
      2574      2582      2585      2575      2574      2576      2575      2574      2582
      2576      2574      2582      2576      2577      2578      2576      2577      2579
      2577      2579      2580      2577      2579      2581      2577      2579      2591
      2578      2577      2579      2579      2591      2592      2579      2591      2593
      2579      2591      2594      2580      2579      2581      2580      2579      2591
      2581      2579      2591      2582      2585      2586      2583      2582      2584
      2583      2582      2585      2584      2582      2585      2585      2586      2587
      2585      2586      2588      2586      2588      2589      2586      2588      2590
      2586      2588      2638      2587      2586      2588      2588      2638      2639
      2588      2638      2640      2588      2638      2641      2589      2588      2590
      2589      2588      2638      2590      2588      2638      2591      2594      2595
      2591      2594      2596      2591      2594      2597      2592      2591      2593
      2592      2591      2594      2593      2591      2594      2594      2597      2598
      2594      2597      2599      2594      2597      2600      2595      2594      2596
      2595      2594      2597      2596      2594      2597      2597      2600      2601
      2597      2600      2602      2597      2600      2603      2598      2597      2599
      2598      2597      2600      2599      2597      2600      2600      2603      2604
      2600      2603      2605      2600      2603      2606      2601      2600      2602
      2601      2600      2603      2602      2600      2603      2603      2606      2607
      2603      2606      2608      2603      2606      2609      2604      2603      2605
      2604      2603      2606      2605      2603      2606      2606      2609      2610
      2606      2609      2611      2607      2606      2608      2607      2606      2609
      2608      2606      2609      2609      2611      2612      2609      2611      2613
      2610      2609      2611      2611      2613      2614      2611      2613      2615
      2611      2613      2616      2612      2611      2613      2613      2616      2617
      2613      2616      2618      2613      2616      2619      2614      2613      2615
      2614      2613      2616      2615      2613      2616      2616      2619      2620
      2616      2619      2621      2616      2619      2622      2617      2616      2618
      2617      2616      2619      2618      2616      2619      2619      2622      2623
      2619      2622      2624      2619      2622      2625      2620      2619      2621
      2620      2619      2622      2621      2619      2622      2622      2625      2626
      2622      2625      2627      2622      2625      2628      2623      2622      2624
      2623      2622      2625      2624      2622      2625      2625      2628      2629
      2625      2628      2630      2625      2628      2631      2626      2625      2627
      2626      2625      2628      2627      2625      2628      2628      2631      2632
      2628      2631      2633      2628      2631      2634      2629      2628      2630
      2629      2628      2631      2630      2628      2631      2631      2634      2635
      2631      2634      2636      2631      2634      2637      2632      2631      2633
      2632      2631      2634      2633      2631      2634      2635      2634      2636
      2635      2634      2637      2636      2634      2637      2638      2641      2642
      2638      2641      2643      2638      2641      2644      2639      2638      2640
      2639      2638      2641      2640      2638      2641      2641      2644      2645
      2641      2644      2646      2641      2644      2647      2642      2641      2643
      2642      2641      2644      2643      2641      2644      2644      2647      2648
      2644      2647      2649      2644      2647      2650      2645      2644      2646
      2645      2644      2647      2646      2644      2647      2647      2650      2651
      2647      2650      2652      2647      2650      2653      2648      2647      2649
      2648      2647      2650      2649      2647      2650      2650      2653      2654
      2650      2653      2655      2650      2653      2656      2651      2650      2652
      2651      2650      2653      2652      2650      2653      2653      2656      2657
      2653      2656      2658      2653      2656      2659      2654      2653      2655
      2654      2653      2656      2655      2653      2656      2656      2659      2660
      2656      2659      2661      2656      2659      2662      2657      2656      2658
      2657      2656      2659      2658      2656      2659      2659      2662      2663
      2659      2662      2664      2659      2662      2665      2660      2659      2661
      2660      2659      2662      2661      2659      2662      2662      2665      2666
      2662      2665      2667      2662      2665      2668      2663      2662      2664
      2663      2662      2665      2664      2662      2665      2665      2668      2669
      2665      2668      2670      2665      2668      2671      2666      2665      2667
      2666      2665      2668      2667      2665      2668      2668      2671      2672
      2668      2671      2673      2668      2671      2674      2669      2668      2670
      2669      2668      2671      2670      2668      2671      2671      2674      2675
      2671      2674      2676      2671      2674      2677      2672      2671      2673
      2672      2671      2674      2673      2671      2674      2674      2677      2678
      2674      2677      2679      2674      2677      2680      2675      2674      2676
      2675      2674      2677      2676      2674      2677      2678      2677      2679
      2678      2677      2680      2679      2677      2680      2681      2682      2683
      2681      2682      2684      2681      2682      2697      2681      2685      2686
      2681      2685      2687      2681      2685      2688      2681      2689      2690
      2681      2689      2691      2681      2689      2692      2681      2693      2694
      2681      2693      2695      2681      2693      2696      2682      2681      2685
      2682      2681      2689      2682      2681      2693      2682      2697      2698
      2682      2697      2699      2682      2697      2703      2683      2682      2684
      2683      2682      2697      2684      2682      2697      2685      2681      2689
      2685      2681      2693      2686      2685      2687      2686      2685      2688
      2687      2685      2688      2689      2681      2693      2690      2689      2691
      2690      2689      2692      2691      2689      2692      2694      2693      2695
      2694      2693      2696      2695      2693      2696      2697      2703      2700
      2698      2697      2699      2698      2697      2703      2699      2697      2703
      2700      2704      2705      2701      2700      2702      2701      2700      2703
      2701      2700      2704      2702      2700      2703      2702      2700      2704
      2703      2700      2704      2704      2705      2706      2704      2705      2707
      2704      2705      2708      2705      2708      2709      2705      2708      2710
      2705      2708      2716      2706      2705      2707      2706      2705      2708
      2707      2705      2708      2708      2710      2711      2708      2716      2717
      2708      2716      2718      2708      2716      2719      2709      2708      2710
      2709      2708      2716      2710      2708      2716      2710      2711      2712
      2710      2711      2713      2711      2713      2714      2711      2713      2715
      2711      2713      2725      2712      2711      2713      2713      2725      2726
      2713      2725      2727      2713      2725      2728      2714      2713      2715
      2714      2713      2725      2715      2713      2725      2716      2719      2720
      2717      2716      2718      2717      2716      2719      2718      2716      2719
      2719      2720      2721      2719      2720      2722      2720      2722      2723
      2720      2722      2724      2720      2722      2772      2721      2720      2722
      2722      2772      2773      2722      2772      2774      2722      2772      2775
      2723      2722      2724      2723      2722      2772      2724      2722      2772
      2725      2728      2729      2725      2728      2730      2725      2728      2731
      2726      2725      2727      2726      2725      2728      2727      2725      2728
      2728      2731      2732      2728      2731      2733      2728      2731      2734
      2729      2728      2730      2729      2728      2731      2730      2728      2731
      2731      2734      2735      2731      2734      2736      2731      2734      2737
      2732      2731      2733      2732      2731      2734      2733      2731      2734
      2734      2737      2738      2734      2737      2739      2734      2737      2740
      2735      2734      2736      2735      2734      2737      2736      2734      2737
      2737      2740      2741      2737      2740      2742      2737      2740      2743
      2738      2737      2739      2738      2737      2740      2739      2737      2740
      2740      2743      2744      2740      2743      2745      2741      2740      2742
      2741      2740      2743      2742      2740      2743      2743      2745      2746
      2743      2745      2747      2744      2743      2745      2745      2747      2748
      2745      2747      2749      2745      2747      2750      2746      2745      2747
      2747      2750      2751      2747      2750      2752      2747      2750      2753
      2748      2747      2749      2748      2747      2750      2749      2747      2750
      2750      2753      2754      2750      2753      2755      2750      2753      2756
      2751      2750      2752      2751      2750      2753      2752      2750      2753
      2753      2756      2757      2753      2756      2758      2753      2756      2759
      2754      2753      2755      2754      2753      2756      2755      2753      2756
      2756      2759      2760      2756      2759      2761      2756      2759      2762
      2757      2756      2758      2757      2756      2759      2758      2756      2759
      2759      2762      2763      2759      2762      2764      2759      2762      2765
      2760      2759      2761      2760      2759      2762      2761      2759      2762
      2762      2765      2766      2762      2765      2767      2762      2765      2768
      2763      2762      2764      2763      2762      2765      2764      2762      2765
      2765      2768      2769      2765      2768      2770      2765      2768      2771
      2766      2765      2767      2766      2765      2768      2767      2765      2768
      2769      2768      2770      2769      2768      2771      2770      2768      2771
      2772      2775      2776      2772      2775      2777      2772      2775      2778
      2773      2772      2774      2773      2772      2775      2774      2772      2775
      2775      2778      2779      2775      2778      2780      2775      2778      2781
      2776      2775      2777      2776      2775      2778      2777      2775      2778
      2778      2781      2782      2778      2781      2783      2778      2781      2784
      2779      2778      2780      2779      2778      2781      2780      2778      2781
      2781      2784      2785      2781      2784      2786      2781      2784      2787
      2782      2781      2783      2782      2781      2784      2783      2781      2784
      2784      2787      2788      2784      2787      2789      2784      2787      2790
      2785      2784      2786      2785      2784      2787      2786      2784      2787
      2787      2790      2791      2787      2790      2792      2787      2790      2793
      2788      2787      2789      2788      2787      2790      2789      2787      2790
      2790      2793      2794      2790      2793      2795      2790      2793      2796
      2791      2790      2792      2791      2790      2793      2792      2790      2793
      2793      2796      2797      2793      2796      2798      2793      2796      2799
      2794      2793      2795      2794      2793      2796      2795      2793      2796
      2796      2799      2800      2796      2799      2801      2796      2799      2802
      2797      2796      2798      2797      2796      2799      2798      2796      2799
      2799      2802      2803      2799      2802      2804      2799      2802      2805
      2800      2799      2801      2800      2799      2802      2801      2799      2802
      2802      2805      2806      2802      2805      2807      2802      2805      2808
      2803      2802      2804      2803      2802      2805      2804      2802      2805
      2805      2808      2809      2805      2808      2810      2805      2808      2811
      2806      2805      2807      2806      2805      2808      2807      2805      2808
      2808      2811      2812      2808      2811      2813      2808      2811      2814
      2809      2808      2810      2809      2808      2811      2810      2808      2811
      2812      2811      2813      2812      2811      2814      2813      2811      2814
      2815      2816      2817      2815      2816      2818      2815      2816      2831
      2815      2819      2820      2815      2819      2821      2815      2819      2822
      2815      2823      2824      2815      2823      2825      2815      2823      2826
      2815      2827      2828      2815      2827      2829      2815      2827      2830
      2816      2815      2819      2816      2815      2823      2816      2815      2827
      2816      2831      2832      2816      2831      2833      2816      2831      2837
      2817      2816      2818      2817      2816      2831      2818      2816      2831
      2819      2815      2823      2819      2815      2827      2820      2819      2821
      2820      2819      2822      2821      2819      2822      2823      2815      2827
      2824      2823      2825      2824      2823      2826      2825      2823      2826
      2828      2827      2829      2828      2827      2830      2829      2827      2830
      2831      2837      2834      2832      2831      2833      2832      2831      2837
      2833      2831      2837      2834      2838      2839      2835      2834      2836
      2835      2834      2837      2835      2834      2838      2836      2834      2837
      2836      2834      2838      2837      2834      2838      2838      2839      2840
      2838      2839      2841      2838      2839      2842      2839      2842      2843
      2839      2842      2844      2839      2842      2850      2840      2839      2841
      2840      2839      2842      2841      2839      2842      2842      2844      2845
      2842      2850      2851      2842      2850      2852      2842      2850      2853
      2843      2842      2844      2843      2842      2850      2844      2842      2850
      2844      2845      2846      2844      2845      2847      2845      2847      2848
      2845      2847      2849      2845      2847      2859      2846      2845      2847
      2847      2859      2860      2847      2859      2861      2847      2859      2862
      2848      2847      2849      2848      2847      2859      2849      2847      2859
      2850      2853      2854      2851      2850      2852      2851      2850      2853
      2852      2850      2853      2853      2854      2855      2853      2854      2856
      2854      2856      2857      2854      2856      2858      2854      2856      2906
      2855      2854      2856      2856      2906      2907      2856      2906      2908
      2856      2906      2909      2857      2856      2858      2857      2856      2906
      2858      2856      2906      2859      2862      2863      2859      2862      2864
      2859      2862      2865      2860      2859      2861      2860      2859      2862
      2861      2859      2862      2862      2865      2866      2862      2865      2867
      2862      2865      2868      2863      2862      2864      2863      2862      2865
      2864      2862      2865      2865      2868      2869      2865      2868      2870
      2865      2868      2871      2866      2865      2867      2866      2865      2868
      2867      2865      2868      2868      2871      2872      2868      2871      2873
      2868      2871      2874      2869      2868      2870      2869      2868      2871
      2870      2868      2871      2871      2874      2875      2871      2874      2876
      2871      2874      2877      2872      2871      2873      2872      2871      2874
      2873      2871      2874      2874      2877      2878      2874      2877      2879
      2875      2874      2876      2875      2874      2877      2876      2874      2877
      2877      2879      2880      2877      2879      2881      2878      2877      2879
      2879      2881      2882      2879      2881      2883      2879      2881      2884
      2880      2879      2881      2881      2884      2885      2881      2884      2886
      2881      2884      2887      2882      2881      2883      2882      2881      2884
      2883      2881      2884      2884      2887      2888      2884      2887      2889
      2884      2887      2890      2885      2884      2886      2885      2884      2887
      2886      2884      2887      2887      2890      2891      2887      2890      2892
      2887      2890      2893      2888      2887      2889      2888      2887      2890
      2889      2887      2890      2890      2893      2894      2890      2893      2895
      2890      2893      2896      2891      2890      2892      2891      2890      2893
      2892      2890      2893      2893      2896      2897      2893      2896      2898
      2893      2896      2899      2894      2893      2895      2894      2893      2896
      2895      2893      2896      2896      2899      2900      2896      2899      2901
      2896      2899      2902      2897      2896      2898      2897      2896      2899
      2898      2896      2899      2899      2902      2903      2899      2902      2904
      2899      2902      2905      2900      2899      2901      2900      2899      2902
      2901      2899      2902      2903      2902      2904      2903      2902      2905
      2904      2902      2905      2906      2909      2910      2906      2909      2911
      2906      2909      2912      2907      2906      2908      2907      2906      2909
      2908      2906      2909      2909      2912      2913      2909      2912      2914
      2909      2912      2915      2910      2909      2911      2910      2909      2912
      2911      2909      2912      2912      2915      2916      2912      2915      2917
      2912      2915      2918      2913      2912      2914      2913      2912      2915
      2914      2912      2915      2915      2918      2919      2915      2918      2920
      2915      2918      2921      2916      2915      2917      2916      2915      2918
      2917      2915      2918      2918      2921      2922      2918      2921      2923
      2918      2921      2924      2919      2918      2920      2919      2918      2921
      2920      2918      2921      2921      2924      2925      2921      2924      2926
      2921      2924      2927      2922      2921      2923      2922      2921      2924
      2923      2921      2924      2924      2927      2928      2924      2927      2929
      2924      2927      2930      2925      2924      2926      2925      2924      2927
      2926      2924      2927      2927      2930      2931      2927      2930      2932
      2927      2930      2933      2928      2927      2929      2928      2927      2930
      2929      2927      2930      2930      2933      2934      2930      2933      2935
      2930      2933      2936      2931      2930      2932      2931      2930      2933
      2932      2930      2933      2933      2936      2937      2933      2936      2938
      2933      2936      2939      2934      2933      2935      2934      2933      2936
      2935      2933      2936      2936      2939      2940      2936      2939      2941
      2936      2939      2942      2937      2936      2938      2937      2936      2939
      2938      2936      2939      2939      2942      2943      2939      2942      2944
      2939      2942      2945      2940      2939      2941      2940      2939      2942
      2941      2939      2942      2942      2945      2946      2942      2945      2947
      2942      2945      2948      2943      2942      2944      2943      2942      2945
      2944      2942      2945      2946      2945      2947      2946      2945      2948
      2947      2945      2948      2949      2950      2951      2949      2950      2952
      2949      2950      2965      2949      2953      2954      2949      2953      2955
      2949      2953      2956      2949      2957      2958      2949      2957      2959
      2949      2957      2960      2949      2961      2962      2949      2961      2963
      2949      2961      2964      2950      2949      2953      2950      2949      2957
      2950      2949      2961      2950      2965      2966      2950      2965      2967
      2950      2965      2971      2951      2950      2952      2951      2950      2965
      2952      2950      2965      2953      2949      2957      2953      2949      2961
      2954      2953      2955      2954      2953      2956      2955      2953      2956
      2957      2949      2961      2958      2957      2959      2958      2957      2960
      2959      2957      2960      2962      2961      2963      2962      2961      2964
      2963      2961      2964      2965      2971      2968      2966      2965      2967
      2966      2965      2971      2967      2965      2971      2968      2972      2973
      2969      2968      2970      2969      2968      2971      2969      2968      2972
      2970      2968      2971      2970      2968      2972      2971      2968      2972
      2972      2973      2974      2972      2973      2975      2972      2973      2976
      2973      2976      2977      2973      2976      2978      2973      2976      2984
      2974      2973      2975      2974      2973      2976      2975      2973      2976
      2976      2978      2979      2976      2984      2985      2976      2984      2986
      2976      2984      2987      2977      2976      2978      2977      2976      2984
      2978      2976      2984      2978      2979      2980      2978      2979      2981
      2979      2981      2982      2979      2981      2983      2979      2981      2993
      2980      2979      2981      2981      2993      2994      2981      2993      2995
      2981      2993      2996      2982      2981      2983      2982      2981      2993
      2983      2981      2993      2984      2987      2988      2985      2984      2986
      2985      2984      2987      2986      2984      2987      2987      2988      2989
      2987      2988      2990      2988      2990      2991      2988      2990      2992
      2988      2990      3040      2989      2988      2990      2990      3040      3041
      2990      3040      3042      2990      3040      3043      2991      2990      2992
      2991      2990      3040      2992      2990      3040      2993      2996      2997
      2993      2996      2998      2993      2996      2999      2994      2993      2995
      2994      2993      2996      2995      2993      2996      2996      2999      3000
      2996      2999      3001      2996      2999      3002      2997      2996      2998
      2997      2996      2999      2998      2996      2999      2999      3002      3003
      2999      3002      3004      2999      3002      3005      3000      2999      3001
      3000      2999      3002      3001      2999      3002      3002      3005      3006
      3002      3005      3007      3002      3005      3008      3003      3002      3004
      3003      3002      3005      3004      3002      3005      3005      3008      3009
      3005      3008      3010      3005      3008      3011      3006      3005      3007
      3006      3005      3008      3007      3005      3008      3008      3011      3012
      3008      3011      3013      3009      3008      3010      3009      3008      3011
      3010      3008      3011      3011      3013      3014      3011      3013      3015
      3012      3011      3013      3013      3015      3016      3013      3015      3017
      3013      3015      3018      3014      3013      3015      3015      3018      3019
      3015      3018      3020      3015      3018      3021      3016      3015      3017
      3016      3015      3018      3017      3015      3018      3018      3021      3022
      3018      3021      3023      3018      3021      3024      3019      3018      3020
      3019      3018      3021      3020      3018      3021      3021      3024      3025
      3021      3024      3026      3021      3024      3027      3022      3021      3023
      3022      3021      3024      3023      3021      3024      3024      3027      3028
      3024      3027      3029      3024      3027      3030      3025      3024      3026
      3025      3024      3027      3026      3024      3027      3027      3030      3031
      3027      3030      3032      3027      3030      3033      3028      3027      3029
      3028      3027      3030      3029      3027      3030      3030      3033      3034
      3030      3033      3035      3030      3033      3036      3031      3030      3032
      3031      3030      3033      3032      3030      3033      3033      3036      3037
      3033      3036      3038      3033      3036      3039      3034      3033      3035
      3034      3033      3036      3035      3033      3036      3037      3036      3038
      3037      3036      3039      3038      3036      3039      3040      3043      3044
      3040      3043      3045      3040      3043      3046      3041      3040      3042
      3041      3040      3043      3042      3040      3043      3043      3046      3047
      3043      3046      3048      3043      3046      3049      3044      3043      3045
      3044      3043      3046      3045      3043      3046      3046      3049      3050
      3046      3049      3051      3046      3049      3052      3047      3046      3048
      3047      3046      3049      3048      3046      3049      3049      3052      3053
      3049      3052      3054      3049      3052      3055      3050      3049      3051
      3050      3049      3052      3051      3049      3052      3052      3055      3056
      3052      3055      3057      3052      3055      3058      3053      3052      3054
      3053      3052      3055      3054      3052      3055      3055      3058      3059
      3055      3058      3060      3055      3058      3061      3056      3055      3057
      3056      3055      3058      3057      3055      3058      3058      3061      3062
      3058      3061      3063      3058      3061      3064      3059      3058      3060
      3059      3058      3061      3060      3058      3061      3061      3064      3065
      3061      3064      3066      3061      3064      3067      3062      3061      3063
      3062      3061      3064      3063      3061      3064      3064      3067      3068
      3064      3067      3069      3064      3067      3070      3065      3064      3066
      3065      3064      3067      3066      3064      3067      3067      3070      3071
      3067      3070      3072      3067      3070      3073      3068      3067      3069
      3068      3067      3070      3069      3067      3070      3070      3073      3074
      3070      3073      3075      3070      3073      3076      3071      3070      3072
      3071      3070      3073      3072      3070      3073      3073      3076      3077
      3073      3076      3078      3073      3076      3079      3074      3073      3075
      3074      3073      3076      3075      3073      3076      3076      3079      3080
      3076      3079      3081      3076      3079      3082      3077      3076      3078
      3077      3076      3079      3078      3076      3079      3080      3079      3081
      3080      3079      3082      3081      3079      3082      3083      3084      3085
      3083      3084      3086      3083      3084      3099      3083      3087      3088
      3083      3087      3089      3083      3087      3090      3083      3091      3092
      3083      3091      3093      3083      3091      3094      3083      3095      3096
      3083      3095      3097      3083      3095      3098      3084      3083      3087
      3084      3083      3091      3084      3083      3095      3084      3099      3100
      3084      3099      3101      3084      3099      3105      3085      3084      3086
      3085      3084      3099      3086      3084      3099      3087      3083      3091
      3087      3083      3095      3088      3087      3089      3088      3087      3090
      3089      3087      3090      3091      3083      3095      3092      3091      3093
      3092      3091      3094      3093      3091      3094      3096      3095      3097
      3096      3095      3098      3097      3095      3098      3099      3105      3102
      3100      3099      3101      3100      3099      3105      3101      3099      3105
      3102      3106      3107      3103      3102      3104      3103      3102      3105
      3103      3102      3106      3104      3102      3105      3104      3102      3106
      3105      3102      3106      3106      3107      3108      3106      3107      3109
      3106      3107      3110      3107      3110      3111      3107      3110      3112
      3107      3110      3118      3108      3107      3109      3108      3107      3110
      3109      3107      3110      3110      3112      3113      3110      3118      3119
      3110      3118      3120      3110      3118      3121      3111      3110      3112
      3111      3110      3118      3112      3110      3118      3112      3113      3114
      3112      3113      3115      3113      3115      3116      3113      3115      3117
      3113      3115      3127      3114      3113      3115      3115      3127      3128
      3115      3127      3129      3115      3127      3130      3116      3115      3117
      3116      3115      3127      3117      3115      3127      3118      3121      3122
      3119      3118      3120      3119      3118      3121      3120      3118      3121
      3121      3122      3123      3121      3122      3124      3122      3124      3125
      3122      3124      3126      3122      3124      3174      3123      3122      3124
      3124      3174      3175      3124      3174      3176      3124      3174      3177
      3125      3124      3126      3125      3124      3174      3126      3124      3174
      3127      3130      3131      3127      3130      3132      3127      3130      3133
      3128      3127      3129      3128      3127      3130      3129      3127      3130
      3130      3133      3134      3130      3133      3135      3130      3133      3136
      3131      3130      3132      3131      3130      3133      3132      3130      3133
      3133      3136      3137      3133      3136      3138      3133      3136      3139
      3134      3133      3135      3134      3133      3136      3135      3133      3136
      3136      3139      3140      3136      3139      3141      3136      3139      3142
      3137      3136      3138      3137      3136      3139      3138      3136      3139
      3139      3142      3143      3139      3142      3144      3139      3142      3145
      3140      3139      3141      3140      3139      3142      3141      3139      3142
      3142      3145      3146      3142      3145      3147      3143      3142      3144
      3143      3142      3145      3144      3142      3145      3145      3147      3148
      3145      3147      3149      3146      3145      3147      3147      3149      3150
      3147      3149      3151      3147      3149      3152      3148      3147      3149
      3149      3152      3153      3149      3152      3154      3149      3152      3155
      3150      3149      3151      3150      3149      3152      3151      3149      3152
      3152      3155      3156      3152      3155      3157      3152      3155      3158
      3153      3152      3154      3153      3152      3155      3154      3152      3155
      3155      3158      3159      3155      3158      3160      3155      3158      3161
      3156      3155      3157      3156      3155      3158      3157      3155      3158
      3158      3161      3162      3158      3161      3163      3158      3161      3164
      3159      3158      3160      3159      3158      3161      3160      3158      3161
      3161      3164      3165      3161      3164      3166      3161      3164      3167
      3162      3161      3163      3162      3161      3164      3163      3161      3164
      3164      3167      3168      3164      3167      3169      3164      3167      3170
      3165      3164      3166      3165      3164      3167      3166      3164      3167
      3167      3170      3171      3167      3170      3172      3167      3170      3173
      3168      3167      3169      3168      3167      3170      3169      3167      3170
      3171      3170      3172      3171      3170      3173      3172      3170      3173
      3174      3177      3178      3174      3177      3179      3174      3177      3180
      3175      3174      3176      3175      3174      3177      3176      3174      3177
      3177      3180      3181      3177      3180      3182      3177      3180      3183
      3178      3177      3179      3178      3177      3180      3179      3177      3180
      3180      3183      3184      3180      3183      3185      3180      3183      3186
      3181      3180      3182      3181      3180      3183      3182      3180      3183
      3183      3186      3187      3183      3186      3188      3183      3186      3189
      3184      3183      3185      3184      3183      3186      3185      3183      3186
      3186      3189      3190      3186      3189      3191      3186      3189      3192
      3187      3186      3188      3187      3186      3189      3188      3186      3189
      3189      3192      3193      3189      3192      3194      3189      3192      3195
      3190      3189      3191      3190      3189      3192      3191      3189      3192
      3192      3195      3196      3192      3195      3197      3192      3195      3198
      3193      3192      3194      3193      3192      3195      3194      3192      3195
      3195      3198      3199      3195      3198      3200      3195      3198      3201
      3196      3195      3197      3196      3195      3198      3197      3195      3198
      3198      3201      3202      3198      3201      3203      3198      3201      3204
      3199      3198      3200      3199      3198      3201      3200      3198      3201
      3201      3204      3205      3201      3204      3206      3201      3204      3207
      3202      3201      3203      3202      3201      3204      3203      3201      3204
      3204      3207      3208      3204      3207      3209      3204      3207      3210
      3205      3204      3206      3205      3204      3207      3206      3204      3207
      3207      3210      3211      3207      3210      3212      3207      3210      3213
      3208      3207      3209      3208      3207      3210      3209      3207      3210
      3210      3213      3214      3210      3213      3215      3210      3213      3216
      3211      3210      3212      3211      3210      3213      3212      3210      3213
      3214      3213      3215      3214      3213      3216      3215      3213      3216
      3217      3218      3219      3217      3218      3220      3217      3218      3233
      3217      3221      3222      3217      3221      3223      3217      3221      3224
      3217      3225      3226      3217      3225      3227      3217      3225      3228
      3217      3229      3230      3217      3229      3231      3217      3229      3232
      3218      3217      3221      3218      3217      3225      3218      3217      3229
      3218      3233      3234      3218      3233      3235      3218      3233      3239
      3219      3218      3220      3219      3218      3233      3220      3218      3233
      3221      3217      3225      3221      3217      3229      3222      3221      3223
      3222      3221      3224      3223      3221      3224      3225      3217      3229
      3226      3225      3227      3226      3225      3228      3227      3225      3228
      3230      3229      3231      3230      3229      3232      3231      3229      3232
      3233      3239      3236      3234      3233      3235      3234      3233      3239
      3235      3233      3239      3236      3240      3241      3237      3236      3238
      3237      3236      3239      3237      3236      3240      3238      3236      3239
      3238      3236      3240      3239      3236      3240      3240      3241      3242
      3240      3241      3243      3240      3241      3244      3241      3244      3245
      3241      3244      3246      3241      3244      3252      3242      3241      3243
      3242      3241      3244      3243      3241      3244      3244      3246      3247
      3244      3252      3253      3244      3252      3254      3244      3252      3255
      3245      3244      3246      3245      3244      3252      3246      3244      3252
      3246      3247      3248      3246      3247      3249      3247      3249      3250
      3247      3249      3251      3247      3249      3261      3248      3247      3249
      3249      3261      3262      3249      3261      3263      3249      3261      3264
      3250      3249      3251      3250      3249      3261      3251      3249      3261
      3252      3255      3256      3253      3252      3254      3253      3252      3255
      3254      3252      3255      3255      3256      3257      3255      3256      3258
      3256      3258      3259      3256      3258      3260      3256      3258      3308
      3257      3256      3258      3258      3308      3309      3258      3308      3310
      3258      3308      3311      3259      3258      3260      3259      3258      3308
      3260      3258      3308      3261      3264      3265      3261      3264      3266
      3261      3264      3267      3262      3261      3263      3262      3261      3264
      3263      3261      3264      3264      3267      3268      3264      3267      3269
      3264      3267      3270      3265      3264      3266      3265      3264      3267
      3266      3264      3267      3267      3270      3271      3267      3270      3272
      3267      3270      3273      3268      3267      3269      3268      3267      3270
      3269      3267      3270      3270      3273      3274      3270      3273      3275
      3270      3273      3276      3271      3270      3272      3271      3270      3273
      3272      3270      3273      3273      3276      3277      3273      3276      3278
      3273      3276      3279      3274      3273      3275      3274      3273      3276
      3275      3273      3276      3276      3279      3280      3276      3279      3281
      3277      3276      3278      3277      3276      3279      3278      3276      3279
      3279      3281      3282      3279      3281      3283      3280      3279      3281
      3281      3283      3284      3281      3283      3285      3281      3283      3286
      3282      3281      3283      3283      3286      3287      3283      3286      3288
      3283      3286      3289      3284      3283      3285      3284      3283      3286
      3285      3283      3286      3286      3289      3290      3286      3289      3291
      3286      3289      3292      3287      3286      3288      3287      3286      3289
      3288      3286      3289      3289      3292      3293      3289      3292      3294
      3289      3292      3295      3290      3289      3291      3290      3289      3292
      3291      3289      3292      3292      3295      3296      3292      3295      3297
      3292      3295      3298      3293      3292      3294      3293      3292      3295
      3294      3292      3295      3295      3298      3299      3295      3298      3300
      3295      3298      3301      3296      3295      3297      3296      3295      3298
      3297      3295      3298      3298      3301      3302      3298      3301      3303
      3298      3301      3304      3299      3298      3300      3299      3298      3301
      3300      3298      3301      3301      3304      3305      3301      3304      3306
      3301      3304      3307      3302      3301      3303      3302      3301      3304
      3303      3301      3304      3305      3304      3306      3305      3304      3307
      3306      3304      3307      3308      3311      3312      3308      3311      3313
      3308      3311      3314      3309      3308      3310      3309      3308      3311
      3310      3308      3311      3311      3314      3315      3311      3314      3316
      3311      3314      3317      3312      3311      3313      3312      3311      3314
      3313      3311      3314      3314      3317      3318      3314      3317      3319
      3314      3317      3320      3315      3314      3316      3315      3314      3317
      3316      3314      3317      3317      3320      3321      3317      3320      3322
      3317      3320      3323      3318      3317      3319      3318      3317      3320
      3319      3317      3320      3320      3323      3324      3320      3323      3325
      3320      3323      3326      3321      3320      3322      3321      3320      3323
      3322      3320      3323      3323      3326      3327      3323      3326      3328
      3323      3326      3329      3324      3323      3325      3324      3323      3326
      3325      3323      3326      3326      3329      3330      3326      3329      3331
      3326      3329      3332      3327      3326      3328      3327      3326      3329
      3328      3326      3329      3329      3332      3333      3329      3332      3334
      3329      3332      3335      3330      3329      3331      3330      3329      3332
      3331      3329      3332      3332      3335      3336      3332      3335      3337
      3332      3335      3338      3333      3332      3334      3333      3332      3335
      3334      3332      3335      3335      3338      3339      3335      3338      3340
      3335      3338      3341      3336      3335      3337      3336      3335      3338
      3337      3335      3338      3338      3341      3342      3338      3341      3343
      3338      3341      3344      3339      3338      3340      3339      3338      3341
      3340      3338      3341      3341      3344      3345      3341      3344      3346
      3341      3344      3347      3342      3341      3343      3342      3341      3344
      3343      3341      3344      3344      3347      3348      3344      3347      3349
      3344      3347      3350      3345      3344      3346      3345      3344      3347
      3346      3344      3347      3348      3347      3349      3348      3347      3350
      3349      3347      3350      3351      3352      3353      3351      3352      3354
      3351      3352      3367      3351      3355      3356      3351      3355      3357
      3351      3355      3358      3351      3359      3360      3351      3359      3361
      3351      3359      3362      3351      3363      3364      3351      3363      3365
      3351      3363      3366      3352      3351      3355      3352      3351      3359
      3352      3351      3363      3352      3367      3368      3352      3367      3369
      3352      3367      3373      3353      3352      3354      3353      3352      3367
      3354      3352      3367      3355      3351      3359      3355      3351      3363
      3356      3355      3357      3356      3355      3358      3357      3355      3358
      3359      3351      3363      3360      3359      3361      3360      3359      3362
      3361      3359      3362      3364      3363      3365      3364      3363      3366
      3365      3363      3366      3367      3373      3370      3368      3367      3369
      3368      3367      3373      3369      3367      3373      3370      3374      3375
      3371      3370      3372      3371      3370      3373      3371      3370      3374
      3372      3370      3373      3372      3370      3374      3373      3370      3374
      3374      3375      3376      3374      3375      3377      3374      3375      3378
      3375      3378      3379      3375      3378      3380      3375      3378      3386
      3376      3375      3377      3376      3375      3378      3377      3375      3378
      3378      3380      3381      3378      3386      3387      3378      3386      3388
      3378      3386      3389      3379      3378      3380      3379      3378      3386
      3380      3378      3386      3380      3381      3382      3380      3381      3383
      3381      3383      3384      3381      3383      3385      3381      3383      3395
      3382      3381      3383      3383      3395      3396      3383      3395      3397
      3383      3395      3398      3384      3383      3385      3384      3383      3395
      3385      3383      3395      3386      3389      3390      3387      3386      3388
      3387      3386      3389      3388      3386      3389      3389      3390      3391
      3389      3390      3392      3390      3392      3393      3390      3392      3394
      3390      3392      3442      3391      3390      3392      3392      3442      3443
      3392      3442      3444      3392      3442      3445      3393      3392      3394
      3393      3392      3442      3394      3392      3442      3395      3398      3399
      3395      3398      3400      3395      3398      3401      3396      3395      3397
      3396      3395      3398      3397      3395      3398      3398      3401      3402
      3398      3401      3403      3398      3401      3404      3399      3398      3400
      3399      3398      3401      3400      3398      3401      3401      3404      3405
      3401      3404      3406      3401      3404      3407      3402      3401      3403
      3402      3401      3404      3403      3401      3404      3404      3407      3408
      3404      3407      3409      3404      3407      3410      3405      3404      3406
      3405      3404      3407      3406      3404      3407      3407      3410      3411
      3407      3410      3412      3407      3410      3413      3408      3407      3409
      3408      3407      3410      3409      3407      3410      3410      3413      3414
      3410      3413      3415      3411      3410      3412      3411      3410      3413
      3412      3410      3413      3413      3415      3416      3413      3415      3417
      3414      3413      3415      3415      3417      3418      3415      3417      3419
      3415      3417      3420      3416      3415      3417      3417      3420      3421
      3417      3420      3422      3417      3420      3423      3418      3417      3419
      3418      3417      3420      3419      3417      3420      3420      3423      3424
      3420      3423      3425      3420      3423      3426      3421      3420      3422
      3421      3420      3423      3422      3420      3423      3423      3426      3427
      3423      3426      3428      3423      3426      3429      3424      3423      3425
      3424      3423      3426      3425      3423      3426      3426      3429      3430
      3426      3429      3431      3426      3429      3432      3427      3426      3428
      3427      3426      3429      3428      3426      3429      3429      3432      3433
      3429      3432      3434      3429      3432      3435      3430      3429      3431
      3430      3429      3432      3431      3429      3432      3432      3435      3436
      3432      3435      3437      3432      3435      3438      3433      3432      3434
      3433      3432      3435      3434      3432      3435      3435      3438      3439
      3435      3438      3440      3435      3438      3441      3436      3435      3437
      3436      3435      3438      3437      3435      3438      3439      3438      3440
      3439      3438      3441      3440      3438      3441      3442      3445      3446
      3442      3445      3447      3442      3445      3448      3443      3442      3444
      3443      3442      3445      3444      3442      3445      3445      3448      3449
      3445      3448      3450      3445      3448      3451      3446      3445      3447
      3446      3445      3448      3447      3445      3448      3448      3451      3452
      3448      3451      3453      3448      3451      3454      3449      3448      3450
      3449      3448      3451      3450      3448      3451      3451      3454      3455
      3451      3454      3456      3451      3454      3457      3452      3451      3453
      3452      3451      3454      3453      3451      3454      3454      3457      3458
      3454      3457      3459      3454      3457      3460      3455      3454      3456
      3455      3454      3457      3456      3454      3457      3457      3460      3461
      3457      3460      3462      3457      3460      3463      3458      3457      3459
      3458      3457      3460      3459      3457      3460      3460      3463      3464
      3460      3463      3465      3460      3463      3466      3461      3460      3462
      3461      3460      3463      3462      3460      3463      3463      3466      3467
      3463      3466      3468      3463      3466      3469      3464      3463      3465
      3464      3463      3466      3465      3463      3466      3466      3469      3470
      3466      3469      3471      3466      3469      3472      3467      3466      3468
      3467      3466      3469      3468      3466      3469      3469      3472      3473
      3469      3472      3474      3469      3472      3475      3470      3469      3471
      3470      3469      3472      3471      3469      3472      3472      3475      3476
      3472      3475      3477      3472      3475      3478      3473      3472      3474
      3473      3472      3475      3474      3472      3475      3475      3478      3479
      3475      3478      3480      3475      3478      3481      3476      3475      3477
      3476      3475      3478      3477      3475      3478      3478      3481      3482
      3478      3481      3483      3478      3481      3484      3479      3478      3480
      3479      3478      3481      3480      3478      3481      3482      3481      3483
      3482      3481      3484      3483      3481      3484      3485      3486      3487
      3485      3486      3488      3485      3486      3501      3485      3489      3490
      3485      3489      3491      3485      3489      3492      3485      3493      3494
      3485      3493      3495      3485      3493      3496      3485      3497      3498
      3485      3497      3499      3485      3497      3500      3486      3485      3489
      3486      3485      3493      3486      3485      3497      3486      3501      3502
      3486      3501      3503      3486      3501      3507      3487      3486      3488
      3487      3486      3501      3488      3486      3501      3489      3485      3493
      3489      3485      3497      3490      3489      3491      3490      3489      3492
      3491      3489      3492      3493      3485      3497      3494      3493      3495
      3494      3493      3496      3495      3493      3496      3498      3497      3499
      3498      3497      3500      3499      3497      3500      3501      3507      3504
      3502      3501      3503      3502      3501      3507      3503      3501      3507
      3504      3508      3509      3505      3504      3506      3505      3504      3507
      3505      3504      3508      3506      3504      3507      3506      3504      3508
      3507      3504      3508      3508      3509      3510      3508      3509      3511
      3508      3509      3512      3509      3512      3513      3509      3512      3514
      3509      3512      3520      3510      3509      3511      3510      3509      3512
      3511      3509      3512      3512      3514      3515      3512      3520      3521
      3512      3520      3522      3512      3520      3523      3513      3512      3514
      3513      3512      3520      3514      3512      3520      3514      3515      3516
      3514      3515      3517      3515      3517      3518      3515      3517      3519
      3515      3517      3529      3516      3515      3517      3517      3529      3530
      3517      3529      3531      3517      3529      3532      3518      3517      3519
      3518      3517      3529      3519      3517      3529      3520      3523      3524
      3521      3520      3522      3521      3520      3523      3522      3520      3523
      3523      3524      3525      3523      3524      3526      3524      3526      3527
      3524      3526      3528      3524      3526      3576      3525      3524      3526
      3526      3576      3577      3526      3576      3578      3526      3576      3579
      3527      3526      3528      3527      3526      3576      3528      3526      3576
      3529      3532      3533      3529      3532      3534      3529      3532      3535
      3530      3529      3531      3530      3529      3532      3531      3529      3532
      3532      3535      3536      3532      3535      3537      3532      3535      3538
      3533      3532      3534      3533      3532      3535      3534      3532      3535
      3535      3538      3539      3535      3538      3540      3535      3538      3541
      3536      3535      3537      3536      3535      3538      3537      3535      3538
      3538      3541      3542      3538      3541      3543      3538      3541      3544
      3539      3538      3540      3539      3538      3541      3540      3538      3541
      3541      3544      3545      3541      3544      3546      3541      3544      3547
      3542      3541      3543      3542      3541      3544      3543      3541      3544
      3544      3547      3548      3544      3547      3549      3545      3544      3546
      3545      3544      3547      3546      3544      3547      3547      3549      3550
      3547      3549      3551      3548      3547      3549      3549      3551      3552
      3549      3551      3553      3549      3551      3554      3550      3549      3551
      3551      3554      3555      3551      3554      3556      3551      3554      3557
      3552      3551      3553      3552      3551      3554      3553      3551      3554
      3554      3557      3558      3554      3557      3559      3554      3557      3560
      3555      3554      3556      3555      3554      3557      3556      3554      3557
      3557      3560      3561      3557      3560      3562      3557      3560      3563
      3558      3557      3559      3558      3557      3560      3559      3557      3560
      3560      3563      3564      3560      3563      3565      3560      3563      3566
      3561      3560      3562      3561      3560      3563      3562      3560      3563
      3563      3566      3567      3563      3566      3568      3563      3566      3569
      3564      3563      3565      3564      3563      3566      3565      3563      3566
      3566      3569      3570      3566      3569      3571      3566      3569      3572
      3567      3566      3568      3567      3566      3569      3568      3566      3569
      3569      3572      3573      3569      3572      3574      3569      3572      3575
      3570      3569      3571      3570      3569      3572      3571      3569      3572
      3573      3572      3574      3573      3572      3575      3574      3572      3575
      3576      3579      3580      3576      3579      3581      3576      3579      3582
      3577      3576      3578      3577      3576      3579      3578      3576      3579
      3579      3582      3583      3579      3582      3584      3579      3582      3585
      3580      3579      3581      3580      3579      3582      3581      3579      3582
      3582      3585      3586      3582      3585      3587      3582      3585      3588
      3583      3582      3584      3583      3582      3585      3584      3582      3585
      3585      3588      3589      3585      3588      3590      3585      3588      3591
      3586      3585      3587      3586      3585      3588      3587      3585      3588
      3588      3591      3592      3588      3591      3593      3588      3591      3594
      3589      3588      3590      3589      3588      3591      3590      3588      3591
      3591      3594      3595      3591      3594      3596      3591      3594      3597
      3592      3591      3593      3592      3591      3594      3593      3591      3594
      3594      3597      3598      3594      3597      3599      3594      3597      3600
      3595      3594      3596      3595      3594      3597      3596      3594      3597
      3597      3600      3601      3597      3600      3602      3597      3600      3603
      3598      3597      3599      3598      3597      3600      3599      3597      3600
      3600      3603      3604      3600      3603      3605      3600      3603      3606
      3601      3600      3602      3601      3600      3603      3602      3600      3603
      3603      3606      3607      3603      3606      3608      3603      3606      3609
      3604      3603      3605      3604      3603      3606      3605      3603      3606
      3606      3609      3610      3606      3609      3611      3606      3609      3612
      3607      3606      3608      3607      3606      3609      3608      3606      3609
      3609      3612      3613      3609      3612      3614      3609      3612      3615
      3610      3609      3611      3610      3609      3612      3611      3609      3612
      3612      3615      3616      3612      3615      3617      3612      3615      3618
      3613      3612      3614      3613      3612      3615      3614      3612      3615
      3616      3615      3617      3616      3615      3618      3617      3615      3618
      3619      3620      3621      3619      3620      3622      3619      3620      3635
      3619      3623      3624      3619      3623      3625      3619      3623      3626
      3619      3627      3628      3619      3627      3629      3619      3627      3630
      3619      3631      3632      3619      3631      3633      3619      3631      3634
      3620      3619      3623      3620      3619      3627      3620      3619      3631
      3620      3635      3636      3620      3635      3637      3620      3635      3641
      3621      3620      3622      3621      3620      3635      3622      3620      3635
      3623      3619      3627      3623      3619      3631      3624      3623      3625
      3624      3623      3626      3625      3623      3626      3627      3619      3631
      3628      3627      3629      3628      3627      3630      3629      3627      3630
      3632      3631      3633      3632      3631      3634      3633      3631      3634
      3635      3641      3638      3636      3635      3637      3636      3635      3641
      3637      3635      3641      3638      3642      3643      3639      3638      3640
      3639      3638      3641      3639      3638      3642      3640      3638      3641
      3640      3638      3642      3641      3638      3642      3642      3643      3644
      3642      3643      3645      3642      3643      3646      3643      3646      3647
      3643      3646      3648      3643      3646      3654      3644      3643      3645
      3644      3643      3646      3645      3643      3646      3646      3648      3649
      3646      3654      3655      3646      3654      3656      3646      3654      3657
      3647      3646      3648      3647      3646      3654      3648      3646      3654
      3648      3649      3650      3648      3649      3651      3649      3651      3652
      3649      3651      3653      3649      3651      3663      3650      3649      3651
      3651      3663      3664      3651      3663      3665      3651      3663      3666
      3652      3651      3653      3652      3651      3663      3653      3651      3663
      3654      3657      3658      3655      3654      3656      3655      3654      3657
      3656      3654      3657      3657      3658      3659      3657      3658      3660
      3658      3660      3661      3658      3660      3662      3658      3660      3710
      3659      3658      3660      3660      3710      3711      3660      3710      3712
      3660      3710      3713      3661      3660      3662      3661      3660      3710
      3662      3660      3710      3663      3666      3667      3663      3666      3668
      3663      3666      3669      3664      3663      3665      3664      3663      3666
      3665      3663      3666      3666      3669      3670      3666      3669      3671
      3666      3669      3672      3667      3666      3668      3667      3666      3669
      3668      3666      3669      3669      3672      3673      3669      3672      3674
      3669      3672      3675      3670      3669      3671      3670      3669      3672
      3671      3669      3672      3672      3675      3676      3672      3675      3677
      3672      3675      3678      3673      3672      3674      3673      3672      3675
      3674      3672      3675      3675      3678      3679      3675      3678      3680
      3675      3678      3681      3676      3675      3677      3676      3675      3678
      3677      3675      3678      3678      3681      3682      3678      3681      3683
      3679      3678      3680      3679      3678      3681      3680      3678      3681
      3681      3683      3684      3681      3683      3685      3682      3681      3683
      3683      3685      3686      3683      3685      3687      3683      3685      3688
      3684      3683      3685      3685      3688      3689      3685      3688      3690
      3685      3688      3691      3686      3685      3687      3686      3685      3688
      3687      3685      3688      3688      3691      3692      3688      3691      3693
      3688      3691      3694      3689      3688      3690      3689      3688      3691
      3690      3688      3691      3691      3694      3695      3691      3694      3696
      3691      3694      3697      3692      3691      3693      3692      3691      3694
      3693      3691      3694      3694      3697      3698      3694      3697      3699
      3694      3697      3700      3695      3694      3696      3695      3694      3697
      3696      3694      3697      3697      3700      3701      3697      3700      3702
      3697      3700      3703      3698      3697      3699      3698      3697      3700
      3699      3697      3700      3700      3703      3704      3700      3703      3705
      3700      3703      3706      3701      3700      3702      3701      3700      3703
      3702      3700      3703      3703      3706      3707      3703      3706      3708
      3703      3706      3709      3704      3703      3705      3704      3703      3706
      3705      3703      3706      3707      3706      3708      3707      3706      3709
      3708      3706      3709      3710      3713      3714      3710      3713      3715
      3710      3713      3716      3711      3710      3712      3711      3710      3713
      3712      3710      3713      3713      3716      3717      3713      3716      3718
      3713      3716      3719      3714      3713      3715      3714      3713      3716
      3715      3713      3716      3716      3719      3720      3716      3719      3721
      3716      3719      3722      3717      3716      3718      3717      3716      3719
      3718      3716      3719      3719      3722      3723      3719      3722      3724
      3719      3722      3725      3720      3719      3721      3720      3719      3722
      3721      3719      3722      3722      3725      3726      3722      3725      3727
      3722      3725      3728      3723      3722      3724      3723      3722      3725
      3724      3722      3725      3725      3728      3729      3725      3728      3730
      3725      3728      3731      3726      3725      3727      3726      3725      3728
      3727      3725      3728      3728      3731      3732      3728      3731      3733
      3728      3731      3734      3729      3728      3730      3729      3728      3731
      3730      3728      3731      3731      3734      3735      3731      3734      3736
      3731      3734      3737      3732      3731      3733      3732      3731      3734
      3733      3731      3734      3734      3737      3738      3734      3737      3739
      3734      3737      3740      3735      3734      3736      3735      3734      3737
      3736      3734      3737      3737      3740      3741      3737      3740      3742
      3737      3740      3743      3738      3737      3739      3738      3737      3740
      3739      3737      3740      3740      3743      3744      3740      3743      3745
      3740      3743      3746      3741      3740      3742      3741      3740      3743
      3742      3740      3743      3743      3746      3747      3743      3746      3748
      3743      3746      3749      3744      3743      3745      3744      3743      3746
      3745      3743      3746      3746      3749      3750      3746      3749      3751
      3746      3749      3752      3747      3746      3748      3747      3746      3749
      3748      3746      3749      3750      3749      3751      3750      3749      3752
      3751      3749      3752      3753      3754      3755      3753      3754      3756
      3753      3754      3769      3753      3757      3758      3753      3757      3759
      3753      3757      3760      3753      3761      3762      3753      3761      3763
      3753      3761      3764      3753      3765      3766      3753      3765      3767
      3753      3765      3768      3754      3753      3757      3754      3753      3761
      3754      3753      3765      3754      3769      3770      3754      3769      3771
      3754      3769      3775      3755      3754      3756      3755      3754      3769
      3756      3754      3769      3757      3753      3761      3757      3753      3765
      3758      3757      3759      3758      3757      3760      3759      3757      3760
      3761      3753      3765      3762      3761      3763      3762      3761      3764
      3763      3761      3764      3766      3765      3767      3766      3765      3768
      3767      3765      3768      3769      3775      3772      3770      3769      3771
      3770      3769      3775      3771      3769      3775      3772      3776      3777
      3773      3772      3774      3773      3772      3775      3773      3772      3776
      3774      3772      3775      3774      3772      3776      3775      3772      3776
      3776      3777      3778      3776      3777      3779      3776      3777      3780
      3777      3780      3781      3777      3780      3782      3777      3780      3788
      3778      3777      3779      3778      3777      3780      3779      3777      3780
      3780      3782      3783      3780      3788      3789      3780      3788      3790
      3780      3788      3791      3781      3780      3782      3781      3780      3788
      3782      3780      3788      3782      3783      3784      3782      3783      3785
      3783      3785      3786      3783      3785      3787      3783      3785      3797
      3784      3783      3785      3785      3797      3798      3785      3797      3799
      3785      3797      3800      3786      3785      3787      3786      3785      3797
      3787      3785      3797      3788      3791      3792      3789      3788      3790
      3789      3788      3791      3790      3788      3791      3791      3792      3793
      3791      3792      3794      3792      3794      3795      3792      3794      3796
      3792      3794      3844      3793      3792      3794      3794      3844      3845
      3794      3844      3846      3794      3844      3847      3795      3794      3796
      3795      3794      3844      3796      3794      3844      3797      3800      3801
      3797      3800      3802      3797      3800      3803      3798      3797      3799
      3798      3797      3800      3799      3797      3800      3800      3803      3804
      3800      3803      3805      3800      3803      3806      3801      3800      3802
      3801      3800      3803      3802      3800      3803      3803      3806      3807
      3803      3806      3808      3803      3806      3809      3804      3803      3805
      3804      3803      3806      3805      3803      3806      3806      3809      3810
      3806      3809      3811      3806      3809      3812      3807      3806      3808
      3807      3806      3809      3808      3806      3809      3809      3812      3813
      3809      3812      3814      3809      3812      3815      3810      3809      3811
      3810      3809      3812      3811      3809      3812      3812      3815      3816
      3812      3815      3817      3813      3812      3814      3813      3812      3815
      3814      3812      3815      3815      3817      3818      3815      3817      3819
      3816      3815      3817      3817      3819      3820      3817      3819      3821
      3817      3819      3822      3818      3817      3819      3819      3822      3823
      3819      3822      3824      3819      3822      3825      3820      3819      3821
      3820      3819      3822      3821      3819      3822      3822      3825      3826
      3822      3825      3827      3822      3825      3828      3823      3822      3824
      3823      3822      3825      3824      3822      3825      3825      3828      3829
      3825      3828      3830      3825      3828      3831      3826      3825      3827
      3826      3825      3828      3827      3825      3828      3828      3831      3832
      3828      3831      3833      3828      3831      3834      3829      3828      3830
      3829      3828      3831      3830      3828      3831      3831      3834      3835
      3831      3834      3836      3831      3834      3837      3832      3831      3833
      3832      3831      3834      3833      3831      3834      3834      3837      3838
      3834      3837      3839      3834      3837      3840      3835      3834      3836
      3835      3834      3837      3836      3834      3837      3837      3840      3841
      3837      3840      3842      3837      3840      3843      3838      3837      3839
      3838      3837      3840      3839      3837      3840      3841      3840      3842
      3841      3840      3843      3842      3840      3843      3844      3847      3848
      3844      3847      3849      3844      3847      3850      3845      3844      3846
      3845      3844      3847      3846      3844      3847      3847      3850      3851
      3847      3850      3852      3847      3850      3853      3848      3847      3849
      3848      3847      3850      3849      3847      3850      3850      3853      3854
      3850      3853      3855      3850      3853      3856      3851      3850      3852
      3851      3850      3853      3852      3850      3853      3853      3856      3857
      3853      3856      3858      3853      3856      3859      3854      3853      3855
      3854      3853      3856      3855      3853      3856      3856      3859      3860
      3856      3859      3861      3856      3859      3862      3857      3856      3858
      3857      3856      3859      3858      3856      3859      3859      3862      3863
      3859      3862      3864      3859      3862      3865      3860      3859      3861
      3860      3859      3862      3861      3859      3862      3862      3865      3866
      3862      3865      3867      3862      3865      3868      3863      3862      3864
      3863      3862      3865      3864      3862      3865      3865      3868      3869
      3865      3868      3870      3865      3868      3871      3866      3865      3867
      3866      3865      3868      3867      3865      3868      3868      3871      3872
      3868      3871      3873      3868      3871      3874      3869      3868      3870
      3869      3868      3871      3870      3868      3871      3871      3874      3875
      3871      3874      3876      3871      3874      3877      3872      3871      3873
      3872      3871      3874      3873      3871      3874      3874      3877      3878
      3874      3877      3879      3874      3877      3880      3875      3874      3876
      3875      3874      3877      3876      3874      3877      3877      3880      3881
      3877      3880      3882      3877      3880      3883      3878      3877      3879
      3878      3877      3880      3879      3877      3880      3880      3883      3884
      3880      3883      3885      3880      3883      3886      3881      3880      3882
      3881      3880      3883      3882      3880      3883      3884      3883      3885
      3884      3883      3886      3885      3883      3886      3887      3888      3889
      3887      3888      3890      3887      3888      3903      3887      3891      3892
      3887      3891      3893      3887      3891      3894      3887      3895      3896
      3887      3895      3897      3887      3895      3898      3887      3899      3900
      3887      3899      3901      3887      3899      3902      3888      3887      3891
      3888      3887      3895      3888      3887      3899      3888      3903      3904
      3888      3903      3905      3888      3903      3909      3889      3888      3890
      3889      3888      3903      3890      3888      3903      3891      3887      3895
      3891      3887      3899      3892      3891      3893      3892      3891      3894
      3893      3891      3894      3895      3887      3899      3896      3895      3897
      3896      3895      3898      3897      3895      3898      3900      3899      3901
      3900      3899      3902      3901      3899      3902      3903      3909      3906
      3904      3903      3905      3904      3903      3909      3905      3903      3909
      3906      3910      3911      3907      3906      3908      3907      3906      3909
      3907      3906      3910      3908      3906      3909      3908      3906      3910
      3909      3906      3910      3910      3911      3912      3910      3911      3913
      3910      3911      3914      3911      3914      3915      3911      3914      3916
      3911      3914      3922      3912      3911      3913      3912      3911      3914
      3913      3911      3914      3914      3916      3917      3914      3922      3923
      3914      3922      3924      3914      3922      3925      3915      3914      3916
      3915      3914      3922      3916      3914      3922      3916      3917      3918
      3916      3917      3919      3917      3919      3920      3917      3919      3921
      3917      3919      3931      3918      3917      3919      3919      3931      3932
      3919      3931      3933      3919      3931      3934      3920      3919      3921
      3920      3919      3931      3921      3919      3931      3922      3925      3926
      3923      3922      3924      3923      3922      3925      3924      3922      3925
      3925      3926      3927      3925      3926      3928      3926      3928      3929
      3926      3928      3930      3926      3928      3978      3927      3926      3928
      3928      3978      3979      3928      3978      3980      3928      3978      3981
      3929      3928      3930      3929      3928      3978      3930      3928      3978
      3931      3934      3935      3931      3934      3936      3931      3934      3937
      3932      3931      3933      3932      3931      3934      3933      3931      3934
      3934      3937      3938      3934      3937      3939      3934      3937      3940
      3935      3934      3936      3935      3934      3937      3936      3934      3937
      3937      3940      3941      3937      3940      3942      3937      3940      3943
      3938      3937      3939      3938      3937      3940      3939      3937      3940
      3940      3943      3944      3940      3943      3945      3940      3943      3946
      3941      3940      3942      3941      3940      3943      3942      3940      3943
      3943      3946      3947      3943      3946      3948      3943      3946      3949
      3944      3943      3945      3944      3943      3946      3945      3943      3946
      3946      3949      3950      3946      3949      3951      3947      3946      3948
      3947      3946      3949      3948      3946      3949      3949      3951      3952
      3949      3951      3953      3950      3949      3951      3951      3953      3954
      3951      3953      3955      3951      3953      3956      3952      3951      3953
      3953      3956      3957      3953      3956      3958      3953      3956      3959
      3954      3953      3955      3954      3953      3956      3955      3953      3956
      3956      3959      3960      3956      3959      3961      3956      3959      3962
      3957      3956      3958      3957      3956      3959      3958      3956      3959
      3959      3962      3963      3959      3962      3964      3959      3962      3965
      3960      3959      3961      3960      3959      3962      3961      3959      3962
      3962      3965      3966      3962      3965      3967      3962      3965      3968
      3963      3962      3964      3963      3962      3965      3964      3962      3965
      3965      3968      3969      3965      3968      3970      3965      3968      3971
      3966      3965      3967      3966      3965      3968      3967      3965      3968
      3968      3971      3972      3968      3971      3973      3968      3971      3974
      3969      3968      3970      3969      3968      3971      3970      3968      3971
      3971      3974      3975      3971      3974      3976      3971      3974      3977
      3972      3971      3973      3972      3971      3974      3973      3971      3974
      3975      3974      3976      3975      3974      3977      3976      3974      3977
      3978      3981      3982      3978      3981      3983      3978      3981      3984
      3979      3978      3980      3979      3978      3981      3980      3978      3981
      3981      3984      3985      3981      3984      3986      3981      3984      3987
      3982      3981      3983      3982      3981      3984      3983      3981      3984
      3984      3987      3988      3984      3987      3989      3984      3987      3990
      3985      3984      3986      3985      3984      3987      3986      3984      3987
      3987      3990      3991      3987      3990      3992      3987      3990      3993
      3988      3987      3989      3988      3987      3990      3989      3987      3990
      3990      3993      3994      3990      3993      3995      3990      3993      3996
      3991      3990      3992      3991      3990      3993      3992      3990      3993
      3993      3996      3997      3993      3996      3998      3993      3996      3999
      3994      3993      3995      3994      3993      3996      3995      3993      3996
      3996      3999      4000      3996      3999      4001      3996      3999      4002
      3997      3996      3998      3997      3996      3999      3998      3996      3999
      3999      4002      4003      3999      4002      4004      3999      4002      4005
      4000      3999      4001      4000      3999      4002      4001      3999      4002
      4002      4005      4006      4002      4005      4007      4002      4005      4008
      4003      4002      4004      4003      4002      4005      4004      4002      4005
      4005      4008      4009      4005      4008      4010      4005      4008      4011
      4006      4005      4007      4006      4005      4008      4007      4005      4008
      4008      4011      4012      4008      4011      4013      4008      4011      4014
      4009      4008      4010      4009      4008      4011      4010      4008      4011
      4011      4014      4015      4011      4014      4016      4011      4014      4017
      4012      4011      4013      4012      4011      4014      4013      4011      4014
      4014      4017      4018      4014      4017      4019      4014      4017      4020
      4015      4014      4016      4015      4014      4017      4016      4014      4017
      4018      4017      4019      4018      4017      4020      4019      4017      4020
      4021      4022      4023      4021      4022      4024      4021      4022      4037
      4021      4025      4026      4021      4025      4027      4021      4025      4028
      4021      4029      4030      4021      4029      4031      4021      4029      4032
      4021      4033      4034      4021      4033      4035      4021      4033      4036
      4022      4021      4025      4022      4021      4029      4022      4021      4033
      4022      4037      4038      4022      4037      4039      4022      4037      4043
      4023      4022      4024      4023      4022      4037      4024      4022      4037
      4025      4021      4029      4025      4021      4033      4026      4025      4027
      4026      4025      4028      4027      4025      4028      4029      4021      4033
      4030      4029      4031      4030      4029      4032      4031      4029      4032
      4034      4033      4035      4034      4033      4036      4035      4033      4036
      4037      4043      4040      4038      4037      4039      4038      4037      4043
      4039      4037      4043      4040      4044      4045      4041      4040      4042
      4041      4040      4043      4041      4040      4044      4042      4040      4043
      4042      4040      4044      4043      4040      4044      4044      4045      4046
      4044      4045      4047      4044      4045      4048      4045      4048      4049
      4045      4048      4050      4045      4048      4056      4046      4045      4047
      4046      4045      4048      4047      4045      4048      4048      4050      4051
      4048      4056      4057      4048      4056      4058      4048      4056      4059
      4049      4048      4050      4049      4048      4056      4050      4048      4056
      4050      4051      4052      4050      4051      4053      4051      4053      4054
      4051      4053      4055      4051      4053      4065      4052      4051      4053
      4053      4065      4066      4053      4065      4067      4053      4065      4068
      4054      4053      4055      4054      4053      4065      4055      4053      4065
      4056      4059      4060      4057      4056      4058      4057      4056      4059
      4058      4056      4059      4059      4060      4061      4059      4060      4062
      4060      4062      4063      4060      4062      4064      4060      4062      4112
      4061      4060      4062      4062      4112      4113      4062      4112      4114
      4062      4112      4115      4063      4062      4064      4063      4062      4112
      4064      4062      4112      4065      4068      4069      4065      4068      4070
      4065      4068      4071      4066      4065      4067      4066      4065      4068
      4067      4065      4068      4068      4071      4072      4068      4071      4073
      4068      4071      4074      4069      4068      4070      4069      4068      4071
      4070      4068      4071      4071      4074      4075      4071      4074      4076
      4071      4074      4077      4072      4071      4073      4072      4071      4074
      4073      4071      4074      4074      4077      4078      4074      4077      4079
      4074      4077      4080      4075      4074      4076      4075      4074      4077
      4076      4074      4077      4077      4080      4081      4077      4080      4082
      4077      4080      4083      4078      4077      4079      4078      4077      4080
      4079      4077      4080      4080      4083      4084      4080      4083      4085
      4081      4080      4082      4081      4080      4083      4082      4080      4083
      4083      4085      4086      4083      4085      4087      4084      4083      4085
      4085      4087      4088      4085      4087      4089      4085      4087      4090
      4086      4085      4087      4087      4090      4091      4087      4090      4092
      4087      4090      4093      4088      4087      4089      4088      4087      4090
      4089      4087      4090      4090      4093      4094      4090      4093      4095
      4090      4093      4096      4091      4090      4092      4091      4090      4093
      4092      4090      4093      4093      4096      4097      4093      4096      4098
      4093      4096      4099      4094      4093      4095      4094      4093      4096
      4095      4093      4096      4096      4099      4100      4096      4099      4101
      4096      4099      4102      4097      4096      4098      4097      4096      4099
      4098      4096      4099      4099      4102      4103      4099      4102      4104
      4099      4102      4105      4100      4099      4101      4100      4099      4102
      4101      4099      4102      4102      4105      4106      4102      4105      4107
      4102      4105      4108      4103      4102      4104      4103      4102      4105
      4104      4102      4105      4105      4108      4109      4105      4108      4110
      4105      4108      4111      4106      4105      4107      4106      4105      4108
      4107      4105      4108      4109      4108      4110      4109      4108      4111
      4110      4108      4111      4112      4115      4116      4112      4115      4117
      4112      4115      4118      4113      4112      4114      4113      4112      4115
      4114      4112      4115      4115      4118      4119      4115      4118      4120
      4115      4118      4121      4116      4115      4117      4116      4115      4118
      4117      4115      4118      4118      4121      4122      4118      4121      4123
      4118      4121      4124      4119      4118      4120      4119      4118      4121
      4120      4118      4121      4121      4124      4125      4121      4124      4126
      4121      4124      4127      4122      4121      4123      4122      4121      4124
      4123      4121      4124      4124      4127      4128      4124      4127      4129
      4124      4127      4130      4125      4124      4126      4125      4124      4127
      4126      4124      4127      4127      4130      4131      4127      4130      4132
      4127      4130      4133      4128      4127      4129      4128      4127      4130
      4129      4127      4130      4130      4133      4134      4130      4133      4135
      4130      4133      4136      4131      4130      4132      4131      4130      4133
      4132      4130      4133      4133      4136      4137      4133      4136      4138
      4133      4136      4139      4134      4133      4135      4134      4133      4136
      4135      4133      4136      4136      4139      4140      4136      4139      4141
      4136      4139      4142      4137      4136      4138      4137      4136      4139
      4138      4136      4139      4139      4142      4143      4139      4142      4144
      4139      4142      4145      4140      4139      4141      4140      4139      4142
      4141      4139      4142      4142      4145      4146      4142      4145      4147
      4142      4145      4148      4143      4142      4144      4143      4142      4145
      4144      4142      4145      4145      4148      4149      4145      4148      4150
      4145      4148      4151      4146      4145      4147      4146      4145      4148
      4147      4145      4148      4148      4151      4152      4148      4151      4153
      4148      4151      4154      4149      4148      4150      4149      4148      4151
      4150      4148      4151      4152      4151      4153      4152      4151      4154
      4153      4151      4154      4155      4156      4157      4155      4156      4158
      4155      4156      4171      4155      4159      4160      4155      4159      4161
      4155      4159      4162      4155      4163      4164      4155      4163      4165
      4155      4163      4166      4155      4167      4168      4155      4167      4169
      4155      4167      4170      4156      4155      4159      4156      4155      4163
      4156      4155      4167      4156      4171      4172      4156      4171      4173
      4156      4171      4177      4157      4156      4158      4157      4156      4171
      4158      4156      4171      4159      4155      4163      4159      4155      4167
      4160      4159      4161      4160      4159      4162      4161      4159      4162
      4163      4155      4167      4164      4163      4165      4164      4163      4166
      4165      4163      4166      4168      4167      4169      4168      4167      4170
      4169      4167      4170      4171      4177      4174      4172      4171      4173
      4172      4171      4177      4173      4171      4177      4174      4178      4179
      4175      4174      4176      4175      4174      4177      4175      4174      4178
      4176      4174      4177      4176      4174      4178      4177      4174      4178
      4178      4179      4180      4178      4179      4181      4178      4179      4182
      4179      4182      4183      4179      4182      4184      4179      4182      4190
      4180      4179      4181      4180      4179      4182      4181      4179      4182
      4182      4184      4185      4182      4190      4191      4182      4190      4192
      4182      4190      4193      4183      4182      4184      4183      4182      4190
      4184      4182      4190      4184      4185      4186      4184      4185      4187
      4185      4187      4188      4185      4187      4189      4185      4187      4199
      4186      4185      4187      4187      4199      4200      4187      4199      4201
      4187      4199      4202      4188      4187      4189      4188      4187      4199
      4189      4187      4199      4190      4193      4194      4191      4190      4192
      4191      4190      4193      4192      4190      4193      4193      4194      4195
      4193      4194      4196      4194      4196      4197      4194      4196      4198
      4194      4196      4246      4195      4194      4196      4196      4246      4247
      4196      4246      4248      4196      4246      4249      4197      4196      4198
      4197      4196      4246      4198      4196      4246      4199      4202      4203
      4199      4202      4204      4199      4202      4205      4200      4199      4201
      4200      4199      4202      4201      4199      4202      4202      4205      4206
      4202      4205      4207      4202      4205      4208      4203      4202      4204
      4203      4202      4205      4204      4202      4205      4205      4208      4209
      4205      4208      4210      4205      4208      4211      4206      4205      4207
      4206      4205      4208      4207      4205      4208      4208      4211      4212
      4208      4211      4213      4208      4211      4214      4209      4208      4210
      4209      4208      4211      4210      4208      4211      4211      4214      4215
      4211      4214      4216      4211      4214      4217      4212      4211      4213
      4212      4211      4214      4213      4211      4214      4214      4217      4218
      4214      4217      4219      4215      4214      4216      4215      4214      4217
      4216      4214      4217      4217      4219      4220      4217      4219      4221
      4218      4217      4219      4219      4221      4222      4219      4221      4223
      4219      4221      4224      4220      4219      4221      4221      4224      4225
      4221      4224      4226      4221      4224      4227      4222      4221      4223
      4222      4221      4224      4223      4221      4224      4224      4227      4228
      4224      4227      4229      4224      4227      4230      4225      4224      4226
      4225      4224      4227      4226      4224      4227      4227      4230      4231
      4227      4230      4232      4227      4230      4233      4228      4227      4229
      4228      4227      4230      4229      4227      4230      4230      4233      4234
      4230      4233      4235      4230      4233      4236      4231      4230      4232
      4231      4230      4233      4232      4230      4233      4233      4236      4237
      4233      4236      4238      4233      4236      4239      4234      4233      4235
      4234      4233      4236      4235      4233      4236      4236      4239      4240
      4236      4239      4241      4236      4239      4242      4237      4236      4238
      4237      4236      4239      4238      4236      4239      4239      4242      4243
      4239      4242      4244      4239      4242      4245      4240      4239      4241
      4240      4239      4242      4241      4239      4242      4243      4242      4244
      4243      4242      4245      4244      4242      4245      4246      4249      4250
      4246      4249      4251      4246      4249      4252      4247      4246      4248
      4247      4246      4249      4248      4246      4249      4249      4252      4253
      4249      4252      4254      4249      4252      4255      4250      4249      4251
      4250      4249      4252      4251      4249      4252      4252      4255      4256
      4252      4255      4257      4252      4255      4258      4253      4252      4254
      4253      4252      4255      4254      4252      4255      4255      4258      4259
      4255      4258      4260      4255      4258      4261      4256      4255      4257
      4256      4255      4258      4257      4255      4258      4258      4261      4262
      4258      4261      4263      4258      4261      4264      4259      4258      4260
      4259      4258      4261      4260      4258      4261      4261      4264      4265
      4261      4264      4266      4261      4264      4267      4262      4261      4263
      4262      4261      4264      4263      4261      4264      4264      4267      4268
      4264      4267      4269      4264      4267      4270      4265      4264      4266
      4265      4264      4267      4266      4264      4267      4267      4270      4271
      4267      4270      4272      4267      4270      4273      4268      4267      4269
      4268      4267      4270      4269      4267      4270      4270      4273      4274
      4270      4273      4275      4270      4273      4276      4271      4270      4272
      4271      4270      4273      4272      4270      4273      4273      4276      4277
      4273      4276      4278      4273      4276      4279      4274      4273      4275
      4274      4273      4276      4275      4273      4276      4276      4279      4280
      4276      4279      4281      4276      4279      4282      4277      4276      4278
      4277      4276      4279      4278      4276      4279      4279      4282      4283
      4279      4282      4284      4279      4282      4285      4280      4279      4281
      4280      4279      4282      4281      4279      4282      4282      4285      4286
      4282      4285      4287      4282      4285      4288      4283      4282      4284
      4283      4282      4285      4284      4282      4285      4286      4285      4287
      4286      4285      4288      4287      4285      4288      4289      4290      4291
      4289      4290      4292      4289      4290      4305      4289      4293      4294
      4289      4293      4295      4289      4293      4296      4289      4297      4298
      4289      4297      4299      4289      4297      4300      4289      4301      4302
      4289      4301      4303      4289      4301      4304      4290      4289      4293
      4290      4289      4297      4290      4289      4301      4290      4305      4306
      4290      4305      4307      4290      4305      4311      4291      4290      4292
      4291      4290      4305      4292      4290      4305      4293      4289      4297
      4293      4289      4301      4294      4293      4295      4294      4293      4296
      4295      4293      4296      4297      4289      4301      4298      4297      4299
      4298      4297      4300      4299      4297      4300      4302      4301      4303
      4302      4301      4304      4303      4301      4304      4305      4311      4308
      4306      4305      4307      4306      4305      4311      4307      4305      4311
      4308      4312      4313      4309      4308      4310      4309      4308      4311
      4309      4308      4312      4310      4308      4311      4310      4308      4312
      4311      4308      4312      4312      4313      4314      4312      4313      4315
      4312      4313      4316      4313      4316      4317      4313      4316      4318
      4313      4316      4324      4314      4313      4315      4314      4313      4316
      4315      4313      4316      4316      4318      4319      4316      4324      4325
      4316      4324      4326      4316      4324      4327      4317      4316      4318
      4317      4316      4324      4318      4316      4324      4318      4319      4320
      4318      4319      4321      4319      4321      4322      4319      4321      4323
      4319      4321      4333      4320      4319      4321      4321      4333      4334
      4321      4333      4335      4321      4333      4336      4322      4321      4323
      4322      4321      4333      4323      4321      4333      4324      4327      4328
      4325      4324      4326      4325      4324      4327      4326      4324      4327
      4327      4328      4329      4327      4328      4330      4328      4330      4331
      4328      4330      4332      4328      4330      4380      4329      4328      4330
      4330      4380      4381      4330      4380      4382      4330      4380      4383
      4331      4330      4332      4331      4330      4380      4332      4330      4380
      4333      4336      4337      4333      4336      4338      4333      4336      4339
      4334      4333      4335      4334      4333      4336      4335      4333      4336
      4336      4339      4340      4336      4339      4341      4336      4339      4342
      4337      4336      4338      4337      4336      4339      4338      4336      4339
      4339      4342      4343      4339      4342      4344      4339      4342      4345
      4340      4339      4341      4340      4339      4342      4341      4339      4342
      4342      4345      4346      4342      4345      4347      4342      4345      4348
      4343      4342      4344      4343      4342      4345      4344      4342      4345
      4345      4348      4349      4345      4348      4350      4345      4348      4351
      4346      4345      4347      4346      4345      4348      4347      4345      4348
      4348      4351      4352      4348      4351      4353      4349      4348      4350
      4349      4348      4351      4350      4348      4351      4351      4353      4354
      4351      4353      4355      4352      4351      4353      4353      4355      4356
      4353      4355      4357      4353      4355      4358      4354      4353      4355
      4355      4358      4359      4355      4358      4360      4355      4358      4361
      4356      4355      4357      4356      4355      4358      4357      4355      4358
      4358      4361      4362      4358      4361      4363      4358      4361      4364
      4359      4358      4360      4359      4358      4361      4360      4358      4361
      4361      4364      4365      4361      4364      4366      4361      4364      4367
      4362      4361      4363      4362      4361      4364      4363      4361      4364
      4364      4367      4368      4364      4367      4369      4364      4367      4370
      4365      4364      4366      4365      4364      4367      4366      4364      4367
      4367      4370      4371      4367      4370      4372      4367      4370      4373
      4368      4367      4369      4368      4367      4370      4369      4367      4370
      4370      4373      4374      4370      4373      4375      4370      4373      4376
      4371      4370      4372      4371      4370      4373      4372      4370      4373
      4373      4376      4377      4373      4376      4378      4373      4376      4379
      4374      4373      4375      4374      4373      4376      4375      4373      4376
      4377      4376      4378      4377      4376      4379      4378      4376      4379
      4380      4383      4384      4380      4383      4385      4380      4383      4386
      4381      4380      4382      4381      4380      4383      4382      4380      4383
      4383      4386      4387      4383      4386      4388      4383      4386      4389
      4384      4383      4385      4384      4383      4386      4385      4383      4386
      4386      4389      4390      4386      4389      4391      4386      4389      4392
      4387      4386      4388      4387      4386      4389      4388      4386      4389
      4389      4392      4393      4389      4392      4394      4389      4392      4395
      4390      4389      4391      4390      4389      4392      4391      4389      4392
      4392      4395      4396      4392      4395      4397      4392      4395      4398
      4393      4392      4394      4393      4392      4395      4394      4392      4395
      4395      4398      4399      4395      4398      4400      4395      4398      4401
      4396      4395      4397      4396      4395      4398      4397      4395      4398
      4398      4401      4402      4398      4401      4403      4398      4401      4404
      4399      4398      4400      4399      4398      4401      4400      4398      4401
      4401      4404      4405      4401      4404      4406      4401      4404      4407
      4402      4401      4403      4402      4401      4404      4403      4401      4404
      4404      4407      4408      4404      4407      4409      4404      4407      4410
      4405      4404      4406      4405      4404      4407      4406      4404      4407
      4407      4410      4411      4407      4410      4412      4407      4410      4413
      4408      4407      4409      4408      4407      4410      4409      4407      4410
      4410      4413      4414      4410      4413      4415      4410      4413      4416
      4411      4410      4412      4411      4410      4413      4412      4410      4413
      4413      4416      4417      4413      4416      4418      4413      4416      4419
      4414      4413      4415      4414      4413      4416      4415      4413      4416
      4416      4419      4420      4416      4419      4421      4416      4419      4422
      4417      4416      4418      4417      4416      4419      4418      4416      4419
      4420      4419      4421      4420      4419      4422      4421      4419      4422
      4423      4424      4425      4423      4424      4426      4423      4424      4439
      4423      4427      4428      4423      4427      4429      4423      4427      4430
      4423      4431      4432      4423      4431      4433      4423      4431      4434
      4423      4435      4436      4423      4435      4437      4423      4435      4438
      4424      4423      4427      4424      4423      4431      4424      4423      4435
      4424      4439      4440      4424      4439      4441      4424      4439      4445
      4425      4424      4426      4425      4424      4439      4426      4424      4439
      4427      4423      4431      4427      4423      4435      4428      4427      4429
      4428      4427      4430      4429      4427      4430      4431      4423      4435
      4432      4431      4433      4432      4431      4434      4433      4431      4434
      4436      4435      4437      4436      4435      4438      4437      4435      4438
      4439      4445      4442      4440      4439      4441      4440      4439      4445
      4441      4439      4445      4442      4446      4447      4443      4442      4444
      4443      4442      4445      4443      4442      4446      4444      4442      4445
      4444      4442      4446      4445      4442      4446      4446      4447      4448
      4446      4447      4449      4446      4447      4450      4447      4450      4451
      4447      4450      4452      4447      4450      4458      4448      4447      4449
      4448      4447      4450      4449      4447      4450      4450      4452      4453
      4450      4458      4459      4450      4458      4460      4450      4458      4461
      4451      4450      4452      4451      4450      4458      4452      4450      4458
      4452      4453      4454      4452      4453      4455      4453      4455      4456
      4453      4455      4457      4453      4455      4467      4454      4453      4455
      4455      4467      4468      4455      4467      4469      4455      4467      4470
      4456      4455      4457      4456      4455      4467      4457      4455      4467
      4458      4461      4462      4459      4458      4460      4459      4458      4461
      4460      4458      4461      4461      4462      4463      4461      4462      4464
      4462      4464      4465      4462      4464      4466      4462      4464      4514
      4463      4462      4464      4464      4514      4515      4464      4514      4516
      4464      4514      4517      4465      4464      4466      4465      4464      4514
      4466      4464      4514      4467      4470      4471      4467      4470      4472
      4467      4470      4473      4468      4467      4469      4468      4467      4470
      4469      4467      4470      4470      4473      4474      4470      4473      4475
      4470      4473      4476      4471      4470      4472      4471      4470      4473
      4472      4470      4473      4473      4476      4477      4473      4476      4478
      4473      4476      4479      4474      4473      4475      4474      4473      4476
      4475      4473      4476      4476      4479      4480      4476      4479      4481
      4476      4479      4482      4477      4476      4478      4477      4476      4479
      4478      4476      4479      4479      4482      4483      4479      4482      4484
      4479      4482      4485      4480      4479      4481      4480      4479      4482
      4481      4479      4482      4482      4485      4486      4482      4485      4487
      4483      4482      4484      4483      4482      4485      4484      4482      4485
      4485      4487      4488      4485      4487      4489      4486      4485      4487
      4487      4489      4490      4487      4489      4491      4487      4489      4492
      4488      4487      4489      4489      4492      4493      4489      4492      4494
      4489      4492      4495      4490      4489      4491      4490      4489      4492
      4491      4489      4492      4492      4495      4496      4492      4495      4497
      4492      4495      4498      4493      4492      4494      4493      4492      4495
      4494      4492      4495      4495      4498      4499      4495      4498      4500
      4495      4498      4501      4496      4495      4497      4496      4495      4498
      4497      4495      4498      4498      4501      4502      4498      4501      4503
      4498      4501      4504      4499      4498      4500      4499      4498      4501
      4500      4498      4501      4501      4504      4505      4501      4504      4506
      4501      4504      4507      4502      4501      4503      4502      4501      4504
      4503      4501      4504      4504      4507      4508      4504      4507      4509
      4504      4507      4510      4505      4504      4506      4505      4504      4507
      4506      4504      4507      4507      4510      4511      4507      4510      4512
      4507      4510      4513      4508      4507      4509      4508      4507      4510
      4509      4507      4510      4511      4510      4512      4511      4510      4513
      4512      4510      4513      4514      4517      4518      4514      4517      4519
      4514      4517      4520      4515      4514      4516      4515      4514      4517
      4516      4514      4517      4517      4520      4521      4517      4520      4522
      4517      4520      4523      4518      4517      4519      4518      4517      4520
      4519      4517      4520      4520      4523      4524      4520      4523      4525
      4520      4523      4526      4521      4520      4522      4521      4520      4523
      4522      4520      4523      4523      4526      4527      4523      4526      4528
      4523      4526      4529      4524      4523      4525      4524      4523      4526
      4525      4523      4526      4526      4529      4530      4526      4529      4531
      4526      4529      4532      4527      4526      4528      4527      4526      4529
      4528      4526      4529      4529      4532      4533      4529      4532      4534
      4529      4532      4535      4530      4529      4531      4530      4529      4532
      4531      4529      4532      4532      4535      4536      4532      4535      4537
      4532      4535      4538      4533      4532      4534      4533      4532      4535
      4534      4532      4535      4535      4538      4539      4535      4538      4540
      4535      4538      4541      4536      4535      4537      4536      4535      4538
      4537      4535      4538      4538      4541      4542      4538      4541      4543
      4538      4541      4544      4539      4538      4540      4539      4538      4541
      4540      4538      4541      4541      4544      4545      4541      4544      4546
      4541      4544      4547      4542      4541      4543      4542      4541      4544
      4543      4541      4544      4544      4547      4548      4544      4547      4549
      4544      4547      4550      4545      4544      4546      4545      4544      4547
      4546      4544      4547      4547      4550      4551      4547      4550      4552
      4547      4550      4553      4548      4547      4549      4548      4547      4550
      4549      4547      4550      4550      4553      4554      4550      4553      4555
      4550      4553      4556      4551      4550      4552      4551      4550      4553
      4552      4550      4553      4554      4553      4555      4554      4553      4556
      4555      4553      4556      4557      4558      4559      4557      4558      4560
      4557      4558      4573      4557      4561      4562      4557      4561      4563
      4557      4561      4564      4557      4565      4566      4557      4565      4567
      4557      4565      4568      4557      4569      4570      4557      4569      4571
      4557      4569      4572      4558      4557      4561      4558      4557      4565
      4558      4557      4569      4558      4573      4574      4558      4573      4575
      4558      4573      4579      4559      4558      4560      4559      4558      4573
      4560      4558      4573      4561      4557      4565      4561      4557      4569
      4562      4561      4563      4562      4561      4564      4563      4561      4564
      4565      4557      4569      4566      4565      4567      4566      4565      4568
      4567      4565      4568      4570      4569      4571      4570      4569      4572
      4571      4569      4572      4573      4579      4576      4574      4573      4575
      4574      4573      4579      4575      4573      4579      4576      4580      4581
      4577      4576      4578      4577      4576      4579      4577      4576      4580
      4578      4576      4579      4578      4576      4580      4579      4576      4580
      4580      4581      4582      4580      4581      4583      4580      4581      4584
      4581      4584      4585      4581      4584      4586      4581      4584      4592
      4582      4581      4583      4582      4581      4584      4583      4581      4584
      4584      4586      4587      4584      4592      4593      4584      4592      4594
      4584      4592      4595      4585      4584      4586      4585      4584      4592
      4586      4584      4592      4586      4587      4588      4586      4587      4589
      4587      4589      4590      4587      4589      4591      4587      4589      4601
      4588      4587      4589      4589      4601      4602      4589      4601      4603
      4589      4601      4604      4590      4589      4591      4590      4589      4601
      4591      4589      4601      4592      4595      4596      4593      4592      4594
      4593      4592      4595      4594      4592      4595      4595      4596      4597
      4595      4596      4598      4596      4598      4599      4596      4598      4600
      4596      4598      4648      4597      4596      4598      4598      4648      4649
      4598      4648      4650      4598      4648      4651      4599      4598      4600
      4599      4598      4648      4600      4598      4648      4601      4604      4605
      4601      4604      4606      4601      4604      4607      4602      4601      4603
      4602      4601      4604      4603      4601      4604      4604      4607      4608
      4604      4607      4609      4604      4607      4610      4605      4604      4606
      4605      4604      4607      4606      4604      4607      4607      4610      4611
      4607      4610      4612      4607      4610      4613      4608      4607      4609
      4608      4607      4610      4609      4607      4610      4610      4613      4614
      4610      4613      4615      4610      4613      4616      4611      4610      4612
      4611      4610      4613      4612      4610      4613      4613      4616      4617
      4613      4616      4618      4613      4616      4619      4614      4613      4615
      4614      4613      4616      4615      4613      4616      4616      4619      4620
      4616      4619      4621      4617      4616      4618      4617      4616      4619
      4618      4616      4619      4619      4621      4622      4619      4621      4623
      4620      4619      4621      4621      4623      4624      4621      4623      4625
      4621      4623      4626      4622      4621      4623      4623      4626      4627
      4623      4626      4628      4623      4626      4629      4624      4623      4625
      4624      4623      4626      4625      4623      4626      4626      4629      4630
      4626      4629      4631      4626      4629      4632      4627      4626      4628
      4627      4626      4629      4628      4626      4629      4629      4632      4633
      4629      4632      4634      4629      4632      4635      4630      4629      4631
      4630      4629      4632      4631      4629      4632      4632      4635      4636
      4632      4635      4637      4632      4635      4638      4633      4632      4634
      4633      4632      4635      4634      4632      4635      4635      4638      4639
      4635      4638      4640      4635      4638      4641      4636      4635      4637
      4636      4635      4638      4637      4635      4638      4638      4641      4642
      4638      4641      4643      4638      4641      4644      4639      4638      4640
      4639      4638      4641      4640      4638      4641      4641      4644      4645
      4641      4644      4646      4641      4644      4647      4642      4641      4643
      4642      4641      4644      4643      4641      4644      4645      4644      4646
      4645      4644      4647      4646      4644      4647      4648      4651      4652
      4648      4651      4653      4648      4651      4654      4649      4648      4650
      4649      4648      4651      4650      4648      4651      4651      4654      4655
      4651      4654      4656      4651      4654      4657      4652      4651      4653
      4652      4651      4654      4653      4651      4654      4654      4657      4658
      4654      4657      4659      4654      4657      4660      4655      4654      4656
      4655      4654      4657      4656      4654      4657      4657      4660      4661
      4657      4660      4662      4657      4660      4663      4658      4657      4659
      4658      4657      4660      4659      4657      4660      4660      4663      4664
      4660      4663      4665      4660      4663      4666      4661      4660      4662
      4661      4660      4663      4662      4660      4663      4663      4666      4667
      4663      4666      4668      4663      4666      4669      4664      4663      4665
      4664      4663      4666      4665      4663      4666      4666      4669      4670
      4666      4669      4671      4666      4669      4672      4667      4666      4668
      4667      4666      4669      4668      4666      4669      4669      4672      4673
      4669      4672      4674      4669      4672      4675      4670      4669      4671
      4670      4669      4672      4671      4669      4672      4672      4675      4676
      4672      4675      4677      4672      4675      4678      4673      4672      4674
      4673      4672      4675      4674      4672      4675      4675      4678      4679
      4675      4678      4680      4675      4678      4681      4676      4675      4677
      4676      4675      4678      4677      4675      4678      4678      4681      4682
      4678      4681      4683      4678      4681      4684      4679      4678      4680
      4679      4678      4681      4680      4678      4681      4681      4684      4685
      4681      4684      4686      4681      4684      4687      4682      4681      4683
      4682      4681      4684      4683      4681      4684      4684      4687      4688
      4684      4687      4689      4684      4687      4690      4685      4684      4686
      4685      4684      4687      4686      4684      4687      4688      4687      4689
      4688      4687      4690      4689      4687      4690      4691      4692      4693
      4691      4692      4694      4691      4692      4707      4691      4695      4696
      4691      4695      4697      4691      4695      4698      4691      4699      4700
      4691      4699      4701      4691      4699      4702      4691      4703      4704
      4691      4703      4705      4691      4703      4706      4692      4691      4695
      4692      4691      4699      4692      4691      4703      4692      4707      4708
      4692      4707      4709      4692      4707      4713      4693      4692      4694
      4693      4692      4707      4694      4692      4707      4695      4691      4699
      4695      4691      4703      4696      4695      4697      4696      4695      4698
      4697      4695      4698      4699      4691      4703      4700      4699      4701
      4700      4699      4702      4701      4699      4702      4704      4703      4705
      4704      4703      4706      4705      4703      4706      4707      4713      4710
      4708      4707      4709      4708      4707      4713      4709      4707      4713
      4710      4714      4715      4711      4710      4712      4711      4710      4713
      4711      4710      4714      4712      4710      4713      4712      4710      4714
      4713      4710      4714      4714      4715      4716      4714      4715      4717
      4714      4715      4718      4715      4718      4719      4715      4718      4720
      4715      4718      4726      4716      4715      4717      4716      4715      4718
      4717      4715      4718      4718      4720      4721      4718      4726      4727
      4718      4726      4728      4718      4726      4729      4719      4718      4720
      4719      4718      4726      4720      4718      4726      4720      4721      4722
      4720      4721      4723      4721      4723      4724      4721      4723      4725
      4721      4723      4735      4722      4721      4723      4723      4735      4736
      4723      4735      4737      4723      4735      4738      4724      4723      4725
      4724      4723      4735      4725      4723      4735      4726      4729      4730
      4727      4726      4728      4727      4726      4729      4728      4726      4729
      4729      4730      4731      4729      4730      4732      4730      4732      4733
      4730      4732      4734      4730      4732      4782      4731      4730      4732
      4732      4782      4783      4732      4782      4784      4732      4782      4785
      4733      4732      4734      4733      4732      4782      4734      4732      4782
      4735      4738      4739      4735      4738      4740      4735      4738      4741
      4736      4735      4737      4736      4735      4738      4737      4735      4738
      4738      4741      4742      4738      4741      4743      4738      4741      4744
      4739      4738      4740      4739      4738      4741      4740      4738      4741
      4741      4744      4745      4741      4744      4746      4741      4744      4747
      4742      4741      4743      4742      4741      4744      4743      4741      4744
      4744      4747      4748      4744      4747      4749      4744      4747      4750
      4745      4744      4746      4745      4744      4747      4746      4744      4747
      4747      4750      4751      4747      4750      4752      4747      4750      4753
      4748      4747      4749      4748      4747      4750      4749      4747      4750
      4750      4753      4754      4750      4753      4755      4751      4750      4752
      4751      4750      4753      4752      4750      4753      4753      4755      4756
      4753      4755      4757      4754      4753      4755      4755      4757      4758
      4755      4757      4759      4755      4757      4760      4756      4755      4757
      4757      4760      4761      4757      4760      4762      4757      4760      4763
      4758      4757      4759      4758      4757      4760      4759      4757      4760
      4760      4763      4764      4760      4763      4765      4760      4763      4766
      4761      4760      4762      4761      4760      4763      4762      4760      4763
      4763      4766      4767      4763      4766      4768      4763      4766      4769
      4764      4763      4765      4764      4763      4766      4765      4763      4766
      4766      4769      4770      4766      4769      4771      4766      4769      4772
      4767      4766      4768      4767      4766      4769      4768      4766      4769
      4769      4772      4773      4769      4772      4774      4769      4772      4775
      4770      4769      4771      4770      4769      4772      4771      4769      4772
      4772      4775      4776      4772      4775      4777      4772      4775      4778
      4773      4772      4774      4773      4772      4775      4774      4772      4775
      4775      4778      4779      4775      4778      4780      4775      4778      4781
      4776      4775      4777      4776      4775      4778      4777      4775      4778
      4779      4778      4780      4779      4778      4781      4780      4778      4781
      4782      4785      4786      4782      4785      4787      4782      4785      4788
      4783      4782      4784      4783      4782      4785      4784      4782      4785
      4785      4788      4789      4785      4788      4790      4785      4788      4791
      4786      4785      4787      4786      4785      4788      4787      4785      4788
      4788      4791      4792      4788      4791      4793      4788      4791      4794
      4789      4788      4790      4789      4788      4791      4790      4788      4791
      4791      4794      4795      4791      4794      4796      4791      4794      4797
      4792      4791      4793      4792      4791      4794      4793      4791      4794
      4794      4797      4798      4794      4797      4799      4794      4797      4800
      4795      4794      4796      4795      4794      4797      4796      4794      4797
      4797      4800      4801      4797      4800      4802      4797      4800      4803
      4798      4797      4799      4798      4797      4800      4799      4797      4800
      4800      4803      4804      4800      4803      4805      4800      4803      4806
      4801      4800      4802      4801      4800      4803      4802      4800      4803
      4803      4806      4807      4803      4806      4808      4803      4806      4809
      4804      4803      4805      4804      4803      4806      4805      4803      4806
      4806      4809      4810      4806      4809      4811      4806      4809      4812
      4807      4806      4808      4807      4806      4809      4808      4806      4809
      4809      4812      4813      4809      4812      4814      4809      4812      4815
      4810      4809      4811      4810      4809      4812      4811      4809      4812
      4812      4815      4816      4812      4815      4817      4812      4815      4818
      4813      4812      4814      4813      4812      4815      4814      4812      4815
      4815      4818      4819      4815      4818      4820      4815      4818      4821
      4816      4815      4817      4816      4815      4818      4817      4815      4818
      4818      4821      4822      4818      4821      4823      4818      4821      4824
      4819      4818      4820      4819      4818      4821      4820      4818      4821
      4822      4821      4823      4822      4821      4824      4823      4821      4824
      4825      4826      4827      4825      4826      4828      4825      4826      4841
      4825      4829      4830      4825      4829      4831      4825      4829      4832
      4825      4833      4834      4825      4833      4835      4825      4833      4836
      4825      4837      4838      4825      4837      4839      4825      4837      4840
      4826      4825      4829      4826      4825      4833      4826      4825      4837
      4826      4841      4842      4826      4841      4843      4826      4841      4847
      4827      4826      4828      4827      4826      4841      4828      4826      4841
      4829      4825      4833      4829      4825      4837      4830      4829      4831
      4830      4829      4832      4831      4829      4832      4833      4825      4837
      4834      4833      4835      4834      4833      4836      4835      4833      4836
      4838      4837      4839      4838      4837      4840      4839      4837      4840
      4841      4847      4844      4842      4841      4843      4842      4841      4847
      4843      4841      4847      4844      4848      4849      4845      4844      4846
      4845      4844      4847      4845      4844      4848      4846      4844      4847
      4846      4844      4848      4847      4844      4848      4848      4849      4850
      4848      4849      4851      4848      4849      4852      4849      4852      4853
      4849      4852      4854      4849      4852      4860      4850      4849      4851
      4850      4849      4852      4851      4849      4852      4852      4854      4855
      4852      4860      4861      4852      4860      4862      4852      4860      4863
      4853      4852      4854      4853      4852      4860      4854      4852      4860
      4854      4855      4856      4854      4855      4857      4855      4857      4858
      4855      4857      4859      4855      4857      4869      4856      4855      4857
      4857      4869      4870      4857      4869      4871      4857      4869      4872
      4858      4857      4859      4858      4857      4869      4859      4857      4869
      4860      4863      4864      4861      4860      4862      4861      4860      4863
      4862      4860      4863      4863      4864      4865      4863      4864      4866
      4864      4866      4867      4864      4866      4868      4864      4866      4916
      4865      4864      4866      4866      4916      4917      4866      4916      4918
      4866      4916      4919      4867      4866      4868      4867      4866      4916
      4868      4866      4916      4869      4872      4873      4869      4872      4874
      4869      4872      4875      4870      4869      4871      4870      4869      4872
      4871      4869      4872      4872      4875      4876      4872      4875      4877
      4872      4875      4878      4873      4872      4874      4873      4872      4875
      4874      4872      4875      4875      4878      4879      4875      4878      4880
      4875      4878      4881      4876      4875      4877      4876      4875      4878
      4877      4875      4878      4878      4881      4882      4878      4881      4883
      4878      4881      4884      4879      4878      4880      4879      4878      4881
      4880      4878      4881      4881      4884      4885      4881      4884      4886
      4881      4884      4887      4882      4881      4883      4882      4881      4884
      4883      4881      4884      4884      4887      4888      4884      4887      4889
      4885      4884      4886      4885      4884      4887      4886      4884      4887
      4887      4889      4890      4887      4889      4891      4888      4887      4889
      4889      4891      4892      4889      4891      4893      4889      4891      4894
      4890      4889      4891      4891      4894      4895      4891      4894      4896
      4891      4894      4897      4892      4891      4893      4892      4891      4894
      4893      4891      4894      4894      4897      4898      4894      4897      4899
      4894      4897      4900      4895      4894      4896      4895      4894      4897
      4896      4894      4897      4897      4900      4901      4897      4900      4902
      4897      4900      4903      4898      4897      4899      4898      4897      4900
      4899      4897      4900      4900      4903      4904      4900      4903      4905
      4900      4903      4906      4901      4900      4902      4901      4900      4903
      4902      4900      4903      4903      4906      4907      4903      4906      4908
      4903      4906      4909      4904      4903      4905      4904      4903      4906
      4905      4903      4906      4906      4909      4910      4906      4909      4911
      4906      4909      4912      4907      4906      4908      4907      4906      4909
      4908      4906      4909      4909      4912      4913      4909      4912      4914
      4909      4912      4915      4910      4909      4911      4910      4909      4912
      4911      4909      4912      4913      4912      4914      4913      4912      4915
      4914      4912      4915      4916      4919      4920      4916      4919      4921
      4916      4919      4922      4917      4916      4918      4917      4916      4919
      4918      4916      4919      4919      4922      4923      4919      4922      4924
      4919      4922      4925      4920      4919      4921      4920      4919      4922
      4921      4919      4922      4922      4925      4926      4922      4925      4927
      4922      4925      4928      4923      4922      4924      4923      4922      4925
      4924      4922      4925      4925      4928      4929      4925      4928      4930
      4925      4928      4931      4926      4925      4927      4926      4925      4928
      4927      4925      4928      4928      4931      4932      4928      4931      4933
      4928      4931      4934      4929      4928      4930      4929      4928      4931
      4930      4928      4931      4931      4934      4935      4931      4934      4936
      4931      4934      4937      4932      4931      4933      4932      4931      4934
      4933      4931      4934      4934      4937      4938      4934      4937      4939
      4934      4937      4940      4935      4934      4936      4935      4934      4937
      4936      4934      4937      4937      4940      4941      4937      4940      4942
      4937      4940      4943      4938      4937      4939      4938      4937      4940
      4939      4937      4940      4940      4943      4944      4940      4943      4945
      4940      4943      4946      4941      4940      4942      4941      4940      4943
      4942      4940      4943      4943      4946      4947      4943      4946      4948
      4943      4946      4949      4944      4943      4945      4944      4943      4946
      4945      4943      4946      4946      4949      4950      4946      4949      4951
      4946      4949      4952      4947      4946      4948      4947      4946      4949
      4948      4946      4949      4949      4952      4953      4949      4952      4954
      4949      4952      4955      4950      4949      4951      4950      4949      4952
      4951      4949      4952      4952      4955      4956      4952      4955      4957
      4952      4955      4958      4953      4952      4954      4953      4952      4955
      4954      4952      4955      4956      4955      4957      4956      4955      4958
      4957      4955      4958      4959      4960      4961      4959      4960      4962
      4959      4960      4975      4959      4963      4964      4959      4963      4965
      4959      4963      4966      4959      4967      4968      4959      4967      4969
      4959      4967      4970      4959      4971      4972      4959      4971      4973
      4959      4971      4974      4960      4959      4963      4960      4959      4967
      4960      4959      4971      4960      4975      4976      4960      4975      4977
      4960      4975      4981      4961      4960      4962      4961      4960      4975
      4962      4960      4975      4963      4959      4967      4963      4959      4971
      4964      4963      4965      4964      4963      4966      4965      4963      4966
      4967      4959      4971      4968      4967      4969      4968      4967      4970
      4969      4967      4970      4972      4971      4973      4972      4971      4974
      4973      4971      4974      4975      4981      4978      4976      4975      4977
      4976      4975      4981      4977      4975      4981      4978      4982      4983
      4979      4978      4980      4979      4978      4981      4979      4978      4982
      4980      4978      4981      4980      4978      4982      4981      4978      4982
      4982      4983      4984      4982      4983      4985      4982      4983      4986
      4983      4986      4987      4983      4986      4988      4983      4986      4994
      4984      4983      4985      4984      4983      4986      4985      4983      4986
      4986      4988      4989      4986      4994      4995      4986      4994      4996
      4986      4994      4997      4987      4986      4988      4987      4986      4994
      4988      4986      4994      4988      4989      4990      4988      4989      4991
      4989      4991      4992      4989      4991      4993      4989      4991      5003
      4990      4989      4991      4991      5003      5004      4991      5003      5005
      4991      5003      5006      4992      4991      4993      4992      4991      5003
      4993      4991      5003      4994      4997      4998      4995      4994      4996
      4995      4994      4997      4996      4994      4997      4997      4998      4999
      4997      4998      5000      4998      5000      5001      4998      5000      5002
      4998      5000      5050      4999      4998      5000      5000      5050      5051
      5000      5050      5052      5000      5050      5053      5001      5000      5002
      5001      5000      5050      5002      5000      5050      5003      5006      5007
      5003      5006      5008      5003      5006      5009      5004      5003      5005
      5004      5003      5006      5005      5003      5006      5006      5009      5010
      5006      5009      5011      5006      5009      5012      5007      5006      5008
      5007      5006      5009      5008      5006      5009      5009      5012      5013
      5009      5012      5014      5009      5012      5015      5010      5009      5011
      5010      5009      5012      5011      5009      5012      5012      5015      5016
      5012      5015      5017      5012      5015      5018      5013      5012      5014
      5013      5012      5015      5014      5012      5015      5015      5018      5019
      5015      5018      5020      5015      5018      5021      5016      5015      5017
      5016      5015      5018      5017      5015      5018      5018      5021      5022
      5018      5021      5023      5019      5018      5020      5019      5018      5021
      5020      5018      5021      5021      5023      5024      5021      5023      5025
      5022      5021      5023      5023      5025      5026      5023      5025      5027
      5023      5025      5028      5024      5023      5025      5025      5028      5029
      5025      5028      5030      5025      5028      5031      5026      5025      5027
      5026      5025      5028      5027      5025      5028      5028      5031      5032
      5028      5031      5033      5028      5031      5034      5029      5028      5030
      5029      5028      5031      5030      5028      5031      5031      5034      5035
      5031      5034      5036      5031      5034      5037      5032      5031      5033
      5032      5031      5034      5033      5031      5034      5034      5037      5038
      5034      5037      5039      5034      5037      5040      5035      5034      5036
      5035      5034      5037      5036      5034      5037      5037      5040      5041
      5037      5040      5042      5037      5040      5043      5038      5037      5039
      5038      5037      5040      5039      5037      5040      5040      5043      5044
      5040      5043      5045      5040      5043      5046      5041      5040      5042
      5041      5040      5043      5042      5040      5043      5043      5046      5047
      5043      5046      5048      5043      5046      5049      5044      5043      5045
      5044      5043      5046      5045      5043      5046      5047      5046      5048
      5047      5046      5049      5048      5046      5049      5050      5053      5054
      5050      5053      5055      5050      5053      5056      5051      5050      5052
      5051      5050      5053      5052      5050      5053      5053      5056      5057
      5053      5056      5058      5053      5056      5059      5054      5053      5055
      5054      5053      5056      5055      5053      5056      5056      5059      5060
      5056      5059      5061      5056      5059      5062      5057      5056      5058
      5057      5056      5059      5058      5056      5059      5059      5062      5063
      5059      5062      5064      5059      5062      5065      5060      5059      5061
      5060      5059      5062      5061      5059      5062      5062      5065      5066
      5062      5065      5067      5062      5065      5068      5063      5062      5064
      5063      5062      5065      5064      5062      5065      5065      5068      5069
      5065      5068      5070      5065      5068      5071      5066      5065      5067
      5066      5065      5068      5067      5065      5068      5068      5071      5072
      5068      5071      5073      5068      5071      5074      5069      5068      5070
      5069      5068      5071      5070      5068      5071      5071      5074      5075
      5071      5074      5076      5071      5074      5077      5072      5071      5073
      5072      5071      5074      5073      5071      5074      5074      5077      5078
      5074      5077      5079      5074      5077      5080      5075      5074      5076
      5075      5074      5077      5076      5074      5077      5077      5080      5081
      5077      5080      5082      5077      5080      5083      5078      5077      5079
      5078      5077      5080      5079      5077      5080      5080      5083      5084
      5080      5083      5085      5080      5083      5086      5081      5080      5082
      5081      5080      5083      5082      5080      5083      5083      5086      5087
      5083      5086      5088      5083      5086      5089      5084      5083      5085
      5084      5083      5086      5085      5083      5086      5086      5089      5090
      5086      5089      5091      5086      5089      5092      5087      5086      5088
      5087      5086      5089      5088      5086      5089      5090      5089      5091
      5090      5089      5092      5091      5089      5092      5093      5094      5095
      5093      5094      5096      5093      5094      5109      5093      5097      5098
      5093      5097      5099      5093      5097      5100      5093      5101      5102
      5093      5101      5103      5093      5101      5104      5093      5105      5106
      5093      5105      5107      5093      5105      5108      5094      5093      5097
      5094      5093      5101      5094      5093      5105      5094      5109      5110
      5094      5109      5111      5094      5109      5115      5095      5094      5096
      5095      5094      5109      5096      5094      5109      5097      5093      5101
      5097      5093      5105      5098      5097      5099      5098      5097      5100
      5099      5097      5100      5101      5093      5105      5102      5101      5103
      5102      5101      5104      5103      5101      5104      5106      5105      5107
      5106      5105      5108      5107      5105      5108      5109      5115      5112
      5110      5109      5111      5110      5109      5115      5111      5109      5115
      5112      5116      5117      5113      5112      5114      5113      5112      5115
      5113      5112      5116      5114      5112      5115      5114      5112      5116
      5115      5112      5116      5116      5117      5118      5116      5117      5119
      5116      5117      5120      5117      5120      5121      5117      5120      5122
      5117      5120      5128      5118      5117      5119      5118      5117      5120
      5119      5117      5120      5120      5122      5123      5120      5128      5129
      5120      5128      5130      5120      5128      5131      5121      5120      5122
      5121      5120      5128      5122      5120      5128      5122      5123      5124
      5122      5123      5125      5123      5125      5126      5123      5125      5127
      5123      5125      5137      5124      5123      5125      5125      5137      5138
      5125      5137      5139      5125      5137      5140      5126      5125      5127
      5126      5125      5137      5127      5125      5137      5128      5131      5132
      5129      5128      5130      5129      5128      5131      5130      5128      5131
      5131      5132      5133      5131      5132      5134      5132      5134      5135
      5132      5134      5136      5132      5134      5184      5133      5132      5134
      5134      5184      5185      5134      5184      5186      5134      5184      5187
      5135      5134      5136      5135      5134      5184      5136      5134      5184
      5137      5140      5141      5137      5140      5142      5137      5140      5143
      5138      5137      5139      5138      5137      5140      5139      5137      5140
      5140      5143      5144      5140      5143      5145      5140      5143      5146
      5141      5140      5142      5141      5140      5143      5142      5140      5143
      5143      5146      5147      5143      5146      5148      5143      5146      5149
      5144      5143      5145      5144      5143      5146      5145      5143      5146
      5146      5149      5150      5146      5149      5151      5146      5149      5152
      5147      5146      5148      5147      5146      5149      5148      5146      5149
      5149      5152      5153      5149      5152      5154      5149      5152      5155
      5150      5149      5151      5150      5149      5152      5151      5149      5152
      5152      5155      5156      5152      5155      5157      5153      5152      5154
      5153      5152      5155      5154      5152      5155      5155      5157      5158
      5155      5157      5159      5156      5155      5157      5157      5159      5160
      5157      5159      5161      5157      5159      5162      5158      5157      5159
      5159      5162      5163      5159      5162      5164      5159      5162      5165
      5160      5159      5161      5160      5159      5162      5161      5159      5162
      5162      5165      5166      5162      5165      5167      5162      5165      5168
      5163      5162      5164      5163      5162      5165      5164      5162      5165
      5165      5168      5169      5165      5168      5170      5165      5168      5171
      5166      5165      5167      5166      5165      5168      5167      5165      5168
      5168      5171      5172      5168      5171      5173      5168      5171      5174
      5169      5168      5170      5169      5168      5171      5170      5168      5171
      5171      5174      5175      5171      5174      5176      5171      5174      5177
      5172      5171      5173      5172      5171      5174      5173      5171      5174
      5174      5177      5178      5174      5177      5179      5174      5177      5180
      5175      5174      5176      5175      5174      5177      5176      5174      5177
      5177      5180      5181      5177      5180      5182      5177      5180      5183
      5178      5177      5179      5178      5177      5180      5179      5177      5180
      5181      5180      5182      5181      5180      5183      5182      5180      5183
      5184      5187      5188      5184      5187      5189      5184      5187      5190
      5185      5184      5186      5185      5184      5187      5186      5184      5187
      5187      5190      5191      5187      5190      5192      5187      5190      5193
      5188      5187      5189      5188      5187      5190      5189      5187      5190
      5190      5193      5194      5190      5193      5195      5190      5193      5196
      5191      5190      5192      5191      5190      5193      5192      5190      5193
      5193      5196      5197      5193      5196      5198      5193      5196      5199
      5194      5193      5195      5194      5193      5196      5195      5193      5196
      5196      5199      5200      5196      5199      5201      5196      5199      5202
      5197      5196      5198      5197      5196      5199      5198      5196      5199
      5199      5202      5203      5199      5202      5204      5199      5202      5205
      5200      5199      5201      5200      5199      5202      5201      5199      5202
      5202      5205      5206      5202      5205      5207      5202      5205      5208
      5203      5202      5204      5203      5202      5205      5204      5202      5205
      5205      5208      5209      5205      5208      5210      5205      5208      5211
      5206      5205      5207      5206      5205      5208      5207      5205      5208
      5208      5211      5212      5208      5211      5213      5208      5211      5214
      5209      5208      5210      5209      5208      5211      5210      5208      5211
      5211      5214      5215      5211      5214      5216      5211      5214      5217
      5212      5211      5213      5212      5211      5214      5213      5211      5214
      5214      5217      5218      5214      5217      5219      5214      5217      5220
      5215      5214      5216      5215      5214      5217      5216      5214      5217
      5217      5220      5221      5217      5220      5222      5217      5220      5223
      5218      5217      5219      5218      5217      5220      5219      5217      5220
      5220      5223      5224      5220      5223      5225      5220      5223      5226
      5221      5220      5222      5221      5220      5223      5222      5220      5223
      5224      5223      5225      5224      5223      5226      5225      5223      5226
      5227      5228      5229      5227      5228      5230      5227      5228      5243
      5227      5231      5232      5227      5231      5233      5227      5231      5234
      5227      5235      5236      5227      5235      5237      5227      5235      5238
      5227      5239      5240      5227      5239      5241      5227      5239      5242
      5228      5227      5231      5228      5227      5235      5228      5227      5239
      5228      5243      5244      5228      5243      5245      5228      5243      5249
      5229      5228      5230      5229      5228      5243      5230      5228      5243
      5231      5227      5235      5231      5227      5239      5232      5231      5233
      5232      5231      5234      5233      5231      5234      5235      5227      5239
      5236      5235      5237      5236      5235      5238      5237      5235      5238
      5240      5239      5241      5240      5239      5242      5241      5239      5242
      5243      5249      5246      5244      5243      5245      5244      5243      5249
      5245      5243      5249      5246      5250      5251      5247      5246      5248
      5247      5246      5249      5247      5246      5250      5248      5246      5249
      5248      5246      5250      5249      5246      5250      5250      5251      5252
      5250      5251      5253      5250      5251      5254      5251      5254      5255
      5251      5254      5256      5251      5254      5262      5252      5251      5253
      5252      5251      5254      5253      5251      5254      5254      5256      5257
      5254      5262      5263      5254      5262      5264      5254      5262      5265
      5255      5254      5256      5255      5254      5262      5256      5254      5262
      5256      5257      5258      5256      5257      5259      5257      5259      5260
      5257      5259      5261      5257      5259      5271      5258      5257      5259
      5259      5271      5272      5259      5271      5273      5259      5271      5274
      5260      5259      5261      5260      5259      5271      5261      5259      5271
      5262      5265      5266      5263      5262      5264      5263      5262      5265
      5264      5262      5265      5265      5266      5267      5265      5266      5268
      5266      5268      5269      5266      5268      5270      5266      5268      5318
      5267      5266      5268      5268      5318      5319      5268      5318      5320
      5268      5318      5321      5269      5268      5270      5269      5268      5318
      5270      5268      5318      5271      5274      5275      5271      5274      5276
      5271      5274      5277      5272      5271      5273      5272      5271      5274
      5273      5271      5274      5274      5277      5278      5274      5277      5279
      5274      5277      5280      5275      5274      5276      5275      5274      5277
      5276      5274      5277      5277      5280      5281      5277      5280      5282
      5277      5280      5283      5278      5277      5279      5278      5277      5280
      5279      5277      5280      5280      5283      5284      5280      5283      5285
      5280      5283      5286      5281      5280      5282      5281      5280      5283
      5282      5280      5283      5283      5286      5287      5283      5286      5288
      5283      5286      5289      5284      5283      5285      5284      5283      5286
      5285      5283      5286      5286      5289      5290      5286      5289      5291
      5287      5286      5288      5287      5286      5289      5288      5286      5289
      5289      5291      5292      5289      5291      5293      5290      5289      5291
      5291      5293      5294      5291      5293      5295      5291      5293      5296
      5292      5291      5293      5293      5296      5297      5293      5296      5298
      5293      5296      5299      5294      5293      5295      5294      5293      5296
      5295      5293      5296      5296      5299      5300      5296      5299      5301
      5296      5299      5302      5297      5296      5298      5297      5296      5299
      5298      5296      5299      5299      5302      5303      5299      5302      5304
      5299      5302      5305      5300      5299      5301      5300      5299      5302
      5301      5299      5302      5302      5305      5306      5302      5305      5307
      5302      5305      5308      5303      5302      5304      5303      5302      5305
      5304      5302      5305      5305      5308      5309      5305      5308      5310
      5305      5308      5311      5306      5305      5307      5306      5305      5308
      5307      5305      5308      5308      5311      5312      5308      5311      5313
      5308      5311      5314      5309      5308      5310      5309      5308      5311
      5310      5308      5311      5311      5314      5315      5311      5314      5316
      5311      5314      5317      5312      5311      5313      5312      5311      5314
      5313      5311      5314      5315      5314      5316      5315      5314      5317
      5316      5314      5317      5318      5321      5322      5318      5321      5323
      5318      5321      5324      5319      5318      5320      5319      5318      5321
      5320      5318      5321      5321      5324      5325      5321      5324      5326
      5321      5324      5327      5322      5321      5323      5322      5321      5324
      5323      5321      5324      5324      5327      5328      5324      5327      5329
      5324      5327      5330      5325      5324      5326      5325      5324      5327
      5326      5324      5327      5327      5330      5331      5327      5330      5332
      5327      5330      5333      5328      5327      5329      5328      5327      5330
      5329      5327      5330      5330      5333      5334      5330      5333      5335
      5330      5333      5336      5331      5330      5332      5331      5330      5333
      5332      5330      5333      5333      5336      5337      5333      5336      5338
      5333      5336      5339      5334      5333      5335      5334      5333      5336
      5335      5333      5336      5336      5339      5340      5336      5339      5341
      5336      5339      5342      5337      5336      5338      5337      5336      5339
      5338      5336      5339      5339      5342      5343      5339      5342      5344
      5339      5342      5345      5340      5339      5341      5340      5339      5342
      5341      5339      5342      5342      5345      5346      5342      5345      5347
      5342      5345      5348      5343      5342      5344      5343      5342      5345
      5344      5342      5345      5345      5348      5349      5345      5348      5350
      5345      5348      5351      5346      5345      5347      5346      5345      5348
      5347      5345      5348      5348      5351      5352      5348      5351      5353
      5348      5351      5354      5349      5348      5350      5349      5348      5351
      5350      5348      5351      5351      5354      5355      5351      5354      5356
      5351      5354      5357      5352      5351      5353      5352      5351      5354
      5353      5351      5354      5354      5357      5358      5354      5357      5359
      5354      5357      5360      5355      5354      5356      5355      5354      5357
      5356      5354      5357      5358      5357      5359      5358      5357      5360
      5359      5357      5360      5361      5362      5363      5361      5362      5364
      5361      5362      5377      5361      5365      5366      5361      5365      5367
      5361      5365      5368      5361      5369      5370      5361      5369      5371
      5361      5369      5372      5361      5373      5374      5361      5373      5375
      5361      5373      5376      5362      5361      5365      5362      5361      5369
      5362      5361      5373      5362      5377      5378      5362      5377      5379
      5362      5377      5383      5363      5362      5364      5363      5362      5377
      5364      5362      5377      5365      5361      5369      5365      5361      5373
      5366      5365      5367      5366      5365      5368      5367      5365      5368
      5369      5361      5373      5370      5369      5371      5370      5369      5372
      5371      5369      5372      5374      5373      5375      5374      5373      5376
      5375      5373      5376      5377      5383      5380      5378      5377      5379
      5378      5377      5383      5379      5377      5383      5380      5384      5385
      5381      5380      5382      5381      5380      5383      5381      5380      5384
      5382      5380      5383      5382      5380      5384      5383      5380      5384
      5384      5385      5386      5384      5385      5387      5384      5385      5388
      5385      5388      5389      5385      5388      5390      5385      5388      5396
      5386      5385      5387      5386      5385      5388      5387      5385      5388
      5388      5390      5391      5388      5396      5397      5388      5396      5398
      5388      5396      5399      5389      5388      5390      5389      5388      5396
      5390      5388      5396      5390      5391      5392      5390      5391      5393
      5391      5393      5394      5391      5393      5395      5391      5393      5405
      5392      5391      5393      5393      5405      5406      5393      5405      5407
      5393      5405      5408      5394      5393      5395      5394      5393      5405
      5395      5393      5405      5396      5399      5400      5397      5396      5398
      5397      5396      5399      5398      5396      5399      5399      5400      5401
      5399      5400      5402      5400      5402      5403      5400      5402      5404
      5400      5402      5452      5401      5400      5402      5402      5452      5453
      5402      5452      5454      5402      5452      5455      5403      5402      5404
      5403      5402      5452      5404      5402      5452      5405      5408      5409
      5405      5408      5410      5405      5408      5411      5406      5405      5407
      5406      5405      5408      5407      5405      5408      5408      5411      5412
      5408      5411      5413      5408      5411      5414      5409      5408      5410
      5409      5408      5411      5410      5408      5411      5411      5414      5415
      5411      5414      5416      5411      5414      5417      5412      5411      5413
      5412      5411      5414      5413      5411      5414      5414      5417      5418
      5414      5417      5419      5414      5417      5420      5415      5414      5416
      5415      5414      5417      5416      5414      5417      5417      5420      5421
      5417      5420      5422      5417      5420      5423      5418      5417      5419
      5418      5417      5420      5419      5417      5420      5420      5423      5424
      5420      5423      5425      5421      5420      5422      5421      5420      5423
      5422      5420      5423      5423      5425      5426      5423      5425      5427
      5424      5423      5425      5425      5427      5428      5425      5427      5429
      5425      5427      5430      5426      5425      5427      5427      5430      5431
      5427      5430      5432      5427      5430      5433      5428      5427      5429
      5428      5427      5430      5429      5427      5430      5430      5433      5434
      5430      5433      5435      5430      5433      5436      5431      5430      5432
      5431      5430      5433      5432      5430      5433      5433      5436      5437
      5433      5436      5438      5433      5436      5439      5434      5433      5435
      5434      5433      5436      5435      5433      5436      5436      5439      5440
      5436      5439      5441      5436      5439      5442      5437      5436      5438
      5437      5436      5439      5438      5436      5439      5439      5442      5443
      5439      5442      5444      5439      5442      5445      5440      5439      5441
      5440      5439      5442      5441      5439      5442      5442      5445      5446
      5442      5445      5447      5442      5445      5448      5443      5442      5444
      5443      5442      5445      5444      5442      5445      5445      5448      5449
      5445      5448      5450      5445      5448      5451      5446      5445      5447
      5446      5445      5448      5447      5445      5448      5449      5448      5450
      5449      5448      5451      5450      5448      5451      5452      5455      5456
      5452      5455      5457      5452      5455      5458      5453      5452      5454
      5453      5452      5455      5454      5452      5455      5455      5458      5459
      5455      5458      5460      5455      5458      5461      5456      5455      5457
      5456      5455      5458      5457      5455      5458      5458      5461      5462
      5458      5461      5463      5458      5461      5464      5459      5458      5460
      5459      5458      5461      5460      5458      5461      5461      5464      5465
      5461      5464      5466      5461      5464      5467      5462      5461      5463
      5462      5461      5464      5463      5461      5464      5464      5467      5468
      5464      5467      5469      5464      5467      5470      5465      5464      5466
      5465      5464      5467      5466      5464      5467      5467      5470      5471
      5467      5470      5472      5467      5470      5473      5468      5467      5469
      5468      5467      5470      5469      5467      5470      5470      5473      5474
      5470      5473      5475      5470      5473      5476      5471      5470      5472
      5471      5470      5473      5472      5470      5473      5473      5476      5477
      5473      5476      5478      5473      5476      5479      5474      5473      5475
      5474      5473      5476      5475      5473      5476      5476      5479      5480
      5476      5479      5481      5476      5479      5482      5477      5476      5478
      5477      5476      5479      5478      5476      5479      5479      5482      5483
      5479      5482      5484      5479      5482      5485      5480      5479      5481
      5480      5479      5482      5481      5479      5482      5482      5485      5486
      5482      5485      5487      5482      5485      5488      5483      5482      5484
      5483      5482      5485      5484      5482      5485      5485      5488      5489
      5485      5488      5490      5485      5488      5491      5486      5485      5487
      5486      5485      5488      5487      5485      5488      5488      5491      5492
      5488      5491      5493      5488      5491      5494      5489      5488      5490
      5489      5488      5491      5490      5488      5491      5492      5491      5493
      5492      5491      5494      5493      5491      5494      5495      5496      5497
      5495      5496      5498      5495      5496      5511      5495      5499      5500
      5495      5499      5501      5495      5499      5502      5495      5503      5504
      5495      5503      5505      5495      5503      5506      5495      5507      5508
      5495      5507      5509      5495      5507      5510      5496      5495      5499
      5496      5495      5503      5496      5495      5507      5496      5511      5512
      5496      5511      5513      5496      5511      5517      5497      5496      5498
      5497      5496      5511      5498      5496      5511      5499      5495      5503
      5499      5495      5507      5500      5499      5501      5500      5499      5502
      5501      5499      5502      5503      5495      5507      5504      5503      5505
      5504      5503      5506      5505      5503      5506      5508      5507      5509
      5508      5507      5510      5509      5507      5510      5511      5517      5514
      5512      5511      5513      5512      5511      5517      5513      5511      5517
      5514      5518      5519      5515      5514      5516      5515      5514      5517
      5515      5514      5518      5516      5514      5517      5516      5514      5518
      5517      5514      5518      5518      5519      5520      5518      5519      5521
      5518      5519      5522      5519      5522      5523      5519      5522      5524
      5519      5522      5530      5520      5519      5521      5520      5519      5522
      5521      5519      5522      5522      5524      5525      5522      5530      5531
      5522      5530      5532      5522      5530      5533      5523      5522      5524
      5523      5522      5530      5524      5522      5530      5524      5525      5526
      5524      5525      5527      5525      5527      5528      5525      5527      5529
      5525      5527      5539      5526      5525      5527      5527      5539      5540
      5527      5539      5541      5527      5539      5542      5528      5527      5529
      5528      5527      5539      5529      5527      5539      5530      5533      5534
      5531      5530      5532      5531      5530      5533      5532      5530      5533
      5533      5534      5535      5533      5534      5536      5534      5536      5537
      5534      5536      5538      5534      5536      5586      5535      5534      5536
      5536      5586      5587      5536      5586      5588      5536      5586      5589
      5537      5536      5538      5537      5536      5586      5538      5536      5586
      5539      5542      5543      5539      5542      5544      5539      5542      5545
      5540      5539      5541      5540      5539      5542      5541      5539      5542
      5542      5545      5546      5542      5545      5547      5542      5545      5548
      5543      5542      5544      5543      5542      5545      5544      5542      5545
      5545      5548      5549      5545      5548      5550      5545      5548      5551
      5546      5545      5547      5546      5545      5548      5547      5545      5548
      5548      5551      5552      5548      5551      5553      5548      5551      5554
      5549      5548      5550      5549      5548      5551      5550      5548      5551
      5551      5554      5555      5551      5554      5556      5551      5554      5557
      5552      5551      5553      5552      5551      5554      5553      5551      5554
      5554      5557      5558      5554      5557      5559      5555      5554      5556
      5555      5554      5557      5556      5554      5557      5557      5559      5560
      5557      5559      5561      5558      5557      5559      5559      5561      5562
      5559      5561      5563      5559      5561      5564      5560      5559      5561
      5561      5564      5565      5561      5564      5566      5561      5564      5567
      5562      5561      5563      5562      5561      5564      5563      5561      5564
      5564      5567      5568      5564      5567      5569      5564      5567      5570
      5565      5564      5566      5565      5564      5567      5566      5564      5567
      5567      5570      5571      5567      5570      5572      5567      5570      5573
      5568      5567      5569      5568      5567      5570      5569      5567      5570
      5570      5573      5574      5570      5573      5575      5570      5573      5576
      5571      5570      5572      5571      5570      5573      5572      5570      5573
      5573      5576      5577      5573      5576      5578      5573      5576      5579
      5574      5573      5575      5574      5573      5576      5575      5573      5576
      5576      5579      5580      5576      5579      5581      5576      5579      5582
      5577      5576      5578      5577      5576      5579      5578      5576      5579
      5579      5582      5583      5579      5582      5584      5579      5582      5585
      5580      5579      5581      5580      5579      5582      5581      5579      5582
      5583      5582      5584      5583      5582      5585      5584      5582      5585
      5586      5589      5590      5586      5589      5591      5586      5589      5592
      5587      5586      5588      5587      5586      5589      5588      5586      5589
      5589      5592      5593      5589      5592      5594      5589      5592      5595
      5590      5589      5591      5590      5589      5592      5591      5589      5592
      5592      5595      5596      5592      5595      5597      5592      5595      5598
      5593      5592      5594      5593      5592      5595      5594      5592      5595
      5595      5598      5599      5595      5598      5600      5595      5598      5601
      5596      5595      5597      5596      5595      5598      5597      5595      5598
      5598      5601      5602      5598      5601      5603      5598      5601      5604
      5599      5598      5600      5599      5598      5601      5600      5598      5601
      5601      5604      5605      5601      5604      5606      5601      5604      5607
      5602      5601      5603      5602      5601      5604      5603      5601      5604
      5604      5607      5608      5604      5607      5609      5604      5607      5610
      5605      5604      5606      5605      5604      5607      5606      5604      5607
      5607      5610      5611      5607      5610      5612      5607      5610      5613
      5608      5607      5609      5608      5607      5610      5609      5607      5610
      5610      5613      5614      5610      5613      5615      5610      5613      5616
      5611      5610      5612      5611      5610      5613      5612      5610      5613
      5613      5616      5617      5613      5616      5618      5613      5616      5619
      5614      5613      5615      5614      5613      5616      5615      5613      5616
      5616      5619      5620      5616      5619      5621      5616      5619      5622
      5617      5616      5618      5617      5616      5619      5618      5616      5619
      5619      5622      5623      5619      5622      5624      5619      5622      5625
      5620      5619      5621      5620      5619      5622      5621      5619      5622
      5622      5625      5626      5622      5625      5627      5622      5625      5628
      5623      5622      5624      5623      5622      5625      5624      5622      5625
      5626      5625      5627      5626      5625      5628      5627      5625      5628
      5629      5630      5631      5629      5630      5632      5629      5630      5645
      5629      5633      5634      5629      5633      5635      5629      5633      5636
      5629      5637      5638      5629      5637      5639      5629      5637      5640
      5629      5641      5642      5629      5641      5643      5629      5641      5644
      5630      5629      5633      5630      5629      5637      5630      5629      5641
      5630      5645      5646      5630      5645      5647      5630      5645      5651
      5631      5630      5632      5631      5630      5645      5632      5630      5645
      5633      5629      5637      5633      5629      5641      5634      5633      5635
      5634      5633      5636      5635      5633      5636      5637      5629      5641
      5638      5637      5639      5638      5637      5640      5639      5637      5640
      5642      5641      5643      5642      5641      5644      5643      5641      5644
      5645      5651      5648      5646      5645      5647      5646      5645      5651
      5647      5645      5651      5648      5652      5653      5649      5648      5650
      5649      5648      5651      5649      5648      5652      5650      5648      5651
      5650      5648      5652      5651      5648      5652      5652      5653      5654
      5652      5653      5655      5652      5653      5656      5653      5656      5657
      5653      5656      5658      5653      5656      5664      5654      5653      5655
      5654      5653      5656      5655      5653      5656      5656      5658      5659
      5656      5664      5665      5656      5664      5666      5656      5664      5667
      5657      5656      5658      5657      5656      5664      5658      5656      5664
      5658      5659      5660      5658      5659      5661      5659      5661      5662
      5659      5661      5663      5659      5661      5673      5660      5659      5661
      5661      5673      5674      5661      5673      5675      5661      5673      5676
      5662      5661      5663      5662      5661      5673      5663      5661      5673
      5664      5667      5668      5665      5664      5666      5665      5664      5667
      5666      5664      5667      5667      5668      5669      5667      5668      5670
      5668      5670      5671      5668      5670      5672      5668      5670      5720
      5669      5668      5670      5670      5720      5721      5670      5720      5722
      5670      5720      5723      5671      5670      5672      5671      5670      5720
      5672      5670      5720      5673      5676      5677      5673      5676      5678
      5673      5676      5679      5674      5673      5675      5674      5673      5676
      5675      5673      5676      5676      5679      5680      5676      5679      5681
      5676      5679      5682      5677      5676      5678      5677      5676      5679
      5678      5676      5679      5679      5682      5683      5679      5682      5684
      5679      5682      5685      5680      5679      5681      5680      5679      5682
      5681      5679      5682      5682      5685      5686      5682      5685      5687
      5682      5685      5688      5683      5682      5684      5683      5682      5685
      5684      5682      5685      5685      5688      5689      5685      5688      5690
      5685      5688      5691      5686      5685      5687      5686      5685      5688
      5687      5685      5688      5688      5691      5692      5688      5691      5693
      5689      5688      5690      5689      5688      5691      5690      5688      5691
      5691      5693      5694      5691      5693      5695      5692      5691      5693
      5693      5695      5696      5693      5695      5697      5693      5695      5698
      5694      5693      5695      5695      5698      5699      5695      5698      5700
      5695      5698      5701      5696      5695      5697      5696      5695      5698
      5697      5695      5698      5698      5701      5702      5698      5701      5703
      5698      5701      5704      5699      5698      5700      5699      5698      5701
      5700      5698      5701      5701      5704      5705      5701      5704      5706
      5701      5704      5707      5702      5701      5703      5702      5701      5704
      5703      5701      5704      5704      5707      5708      5704      5707      5709
      5704      5707      5710      5705      5704      5706      5705      5704      5707
      5706      5704      5707      5707      5710      5711      5707      5710      5712
      5707      5710      5713      5708      5707      5709      5708      5707      5710
      5709      5707      5710      5710      5713      5714      5710      5713      5715
      5710      5713      5716      5711      5710      5712      5711      5710      5713
      5712      5710      5713      5713      5716      5717      5713      5716      5718
      5713      5716      5719      5714      5713      5715      5714      5713      5716
      5715      5713      5716      5717      5716      5718      5717      5716      5719
      5718      5716      5719      5720      5723      5724      5720      5723      5725
      5720      5723      5726      5721      5720      5722      5721      5720      5723
      5722      5720      5723      5723      5726      5727      5723      5726      5728
      5723      5726      5729      5724      5723      5725      5724      5723      5726
      5725      5723      5726      5726      5729      5730      5726      5729      5731
      5726      5729      5732      5727      5726      5728      5727      5726      5729
      5728      5726      5729      5729      5732      5733      5729      5732      5734
      5729      5732      5735      5730      5729      5731      5730      5729      5732
      5731      5729      5732      5732      5735      5736      5732      5735      5737
      5732      5735      5738      5733      5732      5734      5733      5732      5735
      5734      5732      5735      5735      5738      5739      5735      5738      5740
      5735      5738      5741      5736      5735      5737      5736      5735      5738
      5737      5735      5738      5738      5741      5742      5738      5741      5743
      5738      5741      5744      5739      5738      5740      5739      5738      5741
      5740      5738      5741      5741      5744      5745      5741      5744      5746
      5741      5744      5747      5742      5741      5743      5742      5741      5744
      5743      5741      5744      5744      5747      5748      5744      5747      5749
      5744      5747      5750      5745      5744      5746      5745      5744      5747
      5746      5744      5747      5747      5750      5751      5747      5750      5752
      5747      5750      5753      5748      5747      5749      5748      5747      5750
      5749      5747      5750      5750      5753      5754      5750      5753      5755
      5750      5753      5756      5751      5750      5752      5751      5750      5753
      5752      5750      5753      5753      5756      5757      5753      5756      5758
      5753      5756      5759      5754      5753      5755      5754      5753      5756
      5755      5753      5756      5756      5759      5760      5756      5759      5761
      5756      5759      5762      5757      5756      5758      5757      5756      5759
      5758      5756      5759      5760      5759      5761      5760      5759      5762
      5761      5759      5762      5763      5764      5765      5763      5764      5766
      5763      5764      5779      5763      5767      5768      5763      5767      5769
      5763      5767      5770      5763      5771      5772      5763      5771      5773
      5763      5771      5774      5763      5775      5776      5763      5775      5777
      5763      5775      5778      5764      5763      5767      5764      5763      5771
      5764      5763      5775      5764      5779      5780      5764      5779      5781
      5764      5779      5785      5765      5764      5766      5765      5764      5779
      5766      5764      5779      5767      5763      5771      5767      5763      5775
      5768      5767      5769      5768      5767      5770      5769      5767      5770
      5771      5763      5775      5772      5771      5773      5772      5771      5774
      5773      5771      5774      5776      5775      5777      5776      5775      5778
      5777      5775      5778      5779      5785      5782      5780      5779      5781
      5780      5779      5785      5781      5779      5785      5782      5786      5787
      5783      5782      5784      5783      5782      5785      5783      5782      5786
      5784      5782      5785      5784      5782      5786      5785      5782      5786
      5786      5787      5788      5786      5787      5789      5786      5787      5790
      5787      5790      5791      5787      5790      5792      5787      5790      5798
      5788      5787      5789      5788      5787      5790      5789      5787      5790
      5790      5792      5793      5790      5798      5799      5790      5798      5800
      5790      5798      5801      5791      5790      5792      5791      5790      5798
      5792      5790      5798      5792      5793      5794      5792      5793      5795
      5793      5795      5796      5793      5795      5797      5793      5795      5807
      5794      5793      5795      5795      5807      5808      5795      5807      5809
      5795      5807      5810      5796      5795      5797      5796      5795      5807
      5797      5795      5807      5798      5801      5802      5799      5798      5800
      5799      5798      5801      5800      5798      5801      5801      5802      5803
      5801      5802      5804      5802      5804      5805      5802      5804      5806
      5802      5804      5854      5803      5802      5804      5804      5854      5855
      5804      5854      5856      5804      5854      5857      5805      5804      5806
      5805      5804      5854      5806      5804      5854      5807      5810      5811
      5807      5810      5812      5807      5810      5813      5808      5807      5809
      5808      5807      5810      5809      5807      5810      5810      5813      5814
      5810      5813      5815      5810      5813      5816      5811      5810      5812
      5811      5810      5813      5812      5810      5813      5813      5816      5817
      5813      5816      5818      5813      5816      5819      5814      5813      5815
      5814      5813      5816      5815      5813      5816      5816      5819      5820
      5816      5819      5821      5816      5819      5822      5817      5816      5818
      5817      5816      5819      5818      5816      5819      5819      5822      5823
      5819      5822      5824      5819      5822      5825      5820      5819      5821
      5820      5819      5822      5821      5819      5822      5822      5825      5826
      5822      5825      5827      5823      5822      5824      5823      5822      5825
      5824      5822      5825      5825      5827      5828      5825      5827      5829
      5826      5825      5827      5827      5829      5830      5827      5829      5831
      5827      5829      5832      5828      5827      5829      5829      5832      5833
      5829      5832      5834      5829      5832      5835      5830      5829      5831
      5830      5829      5832      5831      5829      5832      5832      5835      5836
      5832      5835      5837      5832      5835      5838      5833      5832      5834
      5833      5832      5835      5834      5832      5835      5835      5838      5839
      5835      5838      5840      5835      5838      5841      5836      5835      5837
      5836      5835      5838      5837      5835      5838      5838      5841      5842
      5838      5841      5843      5838      5841      5844      5839      5838      5840
      5839      5838      5841      5840      5838      5841      5841      5844      5845
      5841      5844      5846      5841      5844      5847      5842      5841      5843
      5842      5841      5844      5843      5841      5844      5844      5847      5848
      5844      5847      5849      5844      5847      5850      5845      5844      5846
      5845      5844      5847      5846      5844      5847      5847      5850      5851
      5847      5850      5852      5847      5850      5853      5848      5847      5849
      5848      5847      5850      5849      5847      5850      5851      5850      5852
      5851      5850      5853      5852      5850      5853      5854      5857      5858
      5854      5857      5859      5854      5857      5860      5855      5854      5856
      5855      5854      5857      5856      5854      5857      5857      5860      5861
      5857      5860      5862      5857      5860      5863      5858      5857      5859
      5858      5857      5860      5859      5857      5860      5860      5863      5864
      5860      5863      5865      5860      5863      5866      5861      5860      5862
      5861      5860      5863      5862      5860      5863      5863      5866      5867
      5863      5866      5868      5863      5866      5869      5864      5863      5865
      5864      5863      5866      5865      5863      5866      5866      5869      5870
      5866      5869      5871      5866      5869      5872      5867      5866      5868
      5867      5866      5869      5868      5866      5869      5869      5872      5873
      5869      5872      5874      5869      5872      5875      5870      5869      5871
      5870      5869      5872      5871      5869      5872      5872      5875      5876
      5872      5875      5877      5872      5875      5878      5873      5872      5874
      5873      5872      5875      5874      5872      5875      5875      5878      5879
      5875      5878      5880      5875      5878      5881      5876      5875      5877
      5876      5875      5878      5877      5875      5878      5878      5881      5882
      5878      5881      5883      5878      5881      5884      5879      5878      5880
      5879      5878      5881      5880      5878      5881      5881      5884      5885
      5881      5884      5886      5881      5884      5887      5882      5881      5883
      5882      5881      5884      5883      5881      5884      5884      5887      5888
      5884      5887      5889      5884      5887      5890      5885      5884      5886
      5885      5884      5887      5886      5884      5887      5887      5890      5891
      5887      5890      5892      5887      5890      5893      5888      5887      5889
      5888      5887      5890      5889      5887      5890      5890      5893      5894
      5890      5893      5895      5890      5893      5896      5891      5890      5892
      5891      5890      5893      5892      5890      5893      5894      5893      5895
      5894      5893      5896      5895      5893      5896      5897      5898      5899
      5897      5898      5900      5897      5898      5913      5897      5901      5902
      5897      5901      5903      5897      5901      5904      5897      5905      5906
      5897      5905      5907      5897      5905      5908      5897      5909      5910
      5897      5909      5911      5897      5909      5912      5898      5897      5901
      5898      5897      5905      5898      5897      5909      5898      5913      5914
      5898      5913      5915      5898      5913      5919      5899      5898      5900
      5899      5898      5913      5900      5898      5913      5901      5897      5905
      5901      5897      5909      5902      5901      5903      5902      5901      5904
      5903      5901      5904      5905      5897      5909      5906      5905      5907
      5906      5905      5908      5907      5905      5908      5910      5909      5911
      5910      5909      5912      5911      5909      5912      5913      5919      5916
      5914      5913      5915      5914      5913      5919      5915      5913      5919
      5916      5920      5921      5917      5916      5918      5917      5916      5919
      5917      5916      5920      5918      5916      5919      5918      5916      5920
      5919      5916      5920      5920      5921      5922      5920      5921      5923
      5920      5921      5924      5921      5924      5925      5921      5924      5926
      5921      5924      5932      5922      5921      5923      5922      5921      5924
      5923      5921      5924      5924      5926      5927      5924      5932      5933
      5924      5932      5934      5924      5932      5935      5925      5924      5926
      5925      5924      5932      5926      5924      5932      5926      5927      5928
      5926      5927      5929      5927      5929      5930      5927      5929      5931
      5927      5929      5941      5928      5927      5929      5929      5941      5942
      5929      5941      5943      5929      5941      5944      5930      5929      5931
      5930      5929      5941      5931      5929      5941      5932      5935      5936
      5933      5932      5934      5933      5932      5935      5934      5932      5935
      5935      5936      5937      5935      5936      5938      5936      5938      5939
      5936      5938      5940      5936      5938      5988      5937      5936      5938
      5938      5988      5989      5938      5988      5990      5938      5988      5991
      5939      5938      5940      5939      5938      5988      5940      5938      5988
      5941      5944      5945      5941      5944      5946      5941      5944      5947
      5942      5941      5943      5942      5941      5944      5943      5941      5944
      5944      5947      5948      5944      5947      5949      5944      5947      5950
      5945      5944      5946      5945      5944      5947      5946      5944      5947
      5947      5950      5951      5947      5950      5952      5947      5950      5953
      5948      5947      5949      5948      5947      5950      5949      5947      5950
      5950      5953      5954      5950      5953      5955      5950      5953      5956
      5951      5950      5952      5951      5950      5953      5952      5950      5953
      5953      5956      5957      5953      5956      5958      5953      5956      5959
      5954      5953      5955      5954      5953      5956      5955      5953      5956
      5956      5959      5960      5956      5959      5961      5957      5956      5958
      5957      5956      5959      5958      5956      5959      5959      5961      5962
      5959      5961      5963      5960      5959      5961      5961      5963      5964
      5961      5963      5965      5961      5963      5966      5962      5961      5963
      5963      5966      5967      5963      5966      5968      5963      5966      5969
      5964      5963      5965      5964      5963      5966      5965      5963      5966
      5966      5969      5970      5966      5969      5971      5966      5969      5972
      5967      5966      5968      5967      5966      5969      5968      5966      5969
      5969      5972      5973      5969      5972      5974      5969      5972      5975
      5970      5969      5971      5970      5969      5972      5971      5969      5972
      5972      5975      5976      5972      5975      5977      5972      5975      5978
      5973      5972      5974      5973      5972      5975      5974      5972      5975
      5975      5978      5979      5975      5978      5980      5975      5978      5981
      5976      5975      5977      5976      5975      5978      5977      5975      5978
      5978      5981      5982      5978      5981      5983      5978      5981      5984
      5979      5978      5980      5979      5978      5981      5980      5978      5981
      5981      5984      5985      5981      5984      5986      5981      5984      5987
      5982      5981      5983      5982      5981      5984      5983      5981      5984
      5985      5984      5986      5985      5984      5987      5986      5984      5987
      5988      5991      5992      5988      5991      5993      5988      5991      5994
      5989      5988      5990      5989      5988      5991      5990      5988      5991
      5991      5994      5995      5991      5994      5996      5991      5994      5997
      5992      5991      5993      5992      5991      5994      5993      5991      5994
      5994      5997      5998      5994      5997      5999      5994      5997      6000
      5995      5994      5996      5995      5994      5997      5996      5994      5997
      5997      6000      6001      5997      6000      6002      5997      6000      6003
      5998      5997      5999      5998      5997      6000      5999      5997      6000
      6000      6003      6004      6000      6003      6005      6000      6003      6006
      6001      6000      6002      6001      6000      6003      6002      6000      6003
      6003      6006      6007      6003      6006      6008      6003      6006      6009
      6004      6003      6005      6004      6003      6006      6005      6003      6006
      6006      6009      6010      6006      6009      6011      6006      6009      6012
      6007      6006      6008      6007      6006      6009      6008      6006      6009
      6009      6012      6013      6009      6012      6014      6009      6012      6015
      6010      6009      6011      6010      6009      6012      6011      6009      6012
      6012      6015      6016      6012      6015      6017      6012      6015      6018
      6013      6012      6014      6013      6012      6015      6014      6012      6015
      6015      6018      6019      6015      6018      6020      6015      6018      6021
      6016      6015      6017      6016      6015      6018      6017      6015      6018
      6018      6021      6022      6018      6021      6023      6018      6021      6024
      6019      6018      6020      6019      6018      6021      6020      6018      6021
      6021      6024      6025      6021      6024      6026      6021      6024      6027
      6022      6021      6023      6022      6021      6024      6023      6021      6024
      6024      6027      6028      6024      6027      6029      6024      6027      6030
      6025      6024      6026      6025      6024      6027      6026      6024      6027
      6028      6027      6029      6028      6027      6030      6029      6027      6030
      6031      6032      6033      6031      6032      6034      6031      6032      6047
      6031      6035      6036      6031      6035      6037      6031      6035      6038
      6031      6039      6040      6031      6039      6041      6031      6039      6042
      6031      6043      6044      6031      6043      6045      6031      6043      6046
      6032      6031      6035      6032      6031      6039      6032      6031      6043
      6032      6047      6048      6032      6047      6049      6032      6047      6053
      6033      6032      6034      6033      6032      6047      6034      6032      6047
      6035      6031      6039      6035      6031      6043      6036      6035      6037
      6036      6035      6038      6037      6035      6038      6039      6031      6043
      6040      6039      6041      6040      6039      6042      6041      6039      6042
      6044      6043      6045      6044      6043      6046      6045      6043      6046
      6047      6053      6050      6048      6047      6049      6048      6047      6053
      6049      6047      6053      6050      6054      6055      6051      6050      6052
      6051      6050      6053      6051      6050      6054      6052      6050      6053
      6052      6050      6054      6053      6050      6054      6054      6055      6056
      6054      6055      6057      6054      6055      6058      6055      6058      6059
      6055      6058      6060      6055      6058      6066      6056      6055      6057
      6056      6055      6058      6057      6055      6058      6058      6060      6061
      6058      6066      6067      6058      6066      6068      6058      6066      6069
      6059      6058      6060      6059      6058      6066      6060      6058      6066
      6060      6061      6062      6060      6061      6063      6061      6063      6064
      6061      6063      6065      6061      6063      6075      6062      6061      6063
      6063      6075      6076      6063      6075      6077      6063      6075      6078
      6064      6063      6065      6064      6063      6075      6065      6063      6075
      6066      6069      6070      6067      6066      6068      6067      6066      6069
      6068      6066      6069      6069      6070      6071      6069      6070      6072
      6070      6072      6073      6070      6072      6074      6070      6072      6122
      6071      6070      6072      6072      6122      6123      6072      6122      6124
      6072      6122      6125      6073      6072      6074      6073      6072      6122
      6074      6072      6122      6075      6078      6079      6075      6078      6080
      6075      6078      6081      6076      6075      6077      6076      6075      6078
      6077      6075      6078      6078      6081      6082      6078      6081      6083
      6078      6081      6084      6079      6078      6080      6079      6078      6081
      6080      6078      6081      6081      6084      6085      6081      6084      6086
      6081      6084      6087      6082      6081      6083      6082      6081      6084
      6083      6081      6084      6084      6087      6088      6084      6087      6089
      6084      6087      6090      6085      6084      6086      6085      6084      6087
      6086      6084      6087      6087      6090      6091      6087      6090      6092
      6087      6090      6093      6088      6087      6089      6088      6087      6090
      6089      6087      6090      6090      6093      6094      6090      6093      6095
      6091      6090      6092      6091      6090      6093      6092      6090      6093
      6093      6095      6096      6093      6095      6097      6094      6093      6095
      6095      6097      6098      6095      6097      6099      6095      6097      6100
      6096      6095      6097      6097      6100      6101      6097      6100      6102
      6097      6100      6103      6098      6097      6099      6098      6097      6100
      6099      6097      6100      6100      6103      6104      6100      6103      6105
      6100      6103      6106      6101      6100      6102      6101      6100      6103
      6102      6100      6103      6103      6106      6107      6103      6106      6108
      6103      6106      6109      6104      6103      6105      6104      6103      6106
      6105      6103      6106      6106      6109      6110      6106      6109      6111
      6106      6109      6112      6107      6106      6108      6107      6106      6109
      6108      6106      6109      6109      6112      6113      6109      6112      6114
      6109      6112      6115      6110      6109      6111      6110      6109      6112
      6111      6109      6112      6112      6115      6116      6112      6115      6117
      6112      6115      6118      6113      6112      6114      6113      6112      6115
      6114      6112      6115      6115      6118      6119      6115      6118      6120
      6115      6118      6121      6116      6115      6117      6116      6115      6118
      6117      6115      6118      6119      6118      6120      6119      6118      6121
      6120      6118      6121      6122      6125      6126      6122      6125      6127
      6122      6125      6128      6123      6122      6124      6123      6122      6125
      6124      6122      6125      6125      6128      6129      6125      6128      6130
      6125      6128      6131      6126      6125      6127      6126      6125      6128
      6127      6125      6128      6128      6131      6132      6128      6131      6133
      6128      6131      6134      6129      6128      6130      6129      6128      6131
      6130      6128      6131      6131      6134      6135      6131      6134      6136
      6131      6134      6137      6132      6131      6133      6132      6131      6134
      6133      6131      6134      6134      6137      6138      6134      6137      6139
      6134      6137      6140      6135      6134      6136      6135      6134      6137
      6136      6134      6137      6137      6140      6141      6137      6140      6142
      6137      6140      6143      6138      6137      6139      6138      6137      6140
      6139      6137      6140      6140      6143      6144      6140      6143      6145
      6140      6143      6146      6141      6140      6142      6141      6140      6143
      6142      6140      6143      6143      6146      6147      6143      6146      6148
      6143      6146      6149      6144      6143      6145      6144      6143      6146
      6145      6143      6146      6146      6149      6150      6146      6149      6151
      6146      6149      6152      6147      6146      6148      6147      6146      6149
      6148      6146      6149      6149      6152      6153      6149      6152      6154
      6149      6152      6155      6150      6149      6151      6150      6149      6152
      6151      6149      6152      6152      6155      6156      6152      6155      6157
      6152      6155      6158      6153      6152      6154      6153      6152      6155
      6154      6152      6155      6155      6158      6159      6155      6158      6160
      6155      6158      6161      6156      6155      6157      6156      6155      6158
      6157      6155      6158      6158      6161      6162      6158      6161      6163
      6158      6161      6164      6159      6158      6160      6159      6158      6161
      6160      6158      6161      6162      6161      6163      6162      6161      6164
      6163      6161      6164      6165      6166      6167      6165      6166      6168
      6165      6166      6181      6165      6169      6170      6165      6169      6171
      6165      6169      6172      6165      6173      6174      6165      6173      6175
      6165      6173      6176      6165      6177      6178      6165      6177      6179
      6165      6177      6180      6166      6165      6169      6166      6165      6173
      6166      6165      6177      6166      6181      6182      6166      6181      6183
      6166      6181      6187      6167      6166      6168      6167      6166      6181
      6168      6166      6181      6169      6165      6173      6169      6165      6177
      6170      6169      6171      6170      6169      6172      6171      6169      6172
      6173      6165      6177      6174      6173      6175      6174      6173      6176
      6175      6173      6176      6178      6177      6179      6178      6177      6180
      6179      6177      6180      6181      6187      6184      6182      6181      6183
      6182      6181      6187      6183      6181      6187      6184      6188      6189
      6185      6184      6186      6185      6184      6187      6185      6184      6188
      6186      6184      6187      6186      6184      6188      6187      6184      6188
      6188      6189      6190      6188      6189      6191      6188      6189      6192
      6189      6192      6193      6189      6192      6194      6189      6192      6200
      6190      6189      6191      6190      6189      6192      6191      6189      6192
      6192      6194      6195      6192      6200      6201      6192      6200      6202
      6192      6200      6203      6193      6192      6194      6193      6192      6200
      6194      6192      6200      6194      6195      6196      6194      6195      6197
      6195      6197      6198      6195      6197      6199      6195      6197      6209
      6196      6195      6197      6197      6209      6210      6197      6209      6211
      6197      6209      6212      6198      6197      6199      6198      6197      6209
      6199      6197      6209      6200      6203      6204      6201      6200      6202
      6201      6200      6203      6202      6200      6203      6203      6204      6205
      6203      6204      6206      6204      6206      6207      6204      6206      6208
      6204      6206      6256      6205      6204      6206      6206      6256      6257
      6206      6256      6258      6206      6256      6259      6207      6206      6208
      6207      6206      6256      6208      6206      6256      6209      6212      6213
      6209      6212      6214      6209      6212      6215      6210      6209      6211
      6210      6209      6212      6211      6209      6212      6212      6215      6216
      6212      6215      6217      6212      6215      6218      6213      6212      6214
      6213      6212      6215      6214      6212      6215      6215      6218      6219
      6215      6218      6220      6215      6218      6221      6216      6215      6217
      6216      6215      6218      6217      6215      6218      6218      6221      6222
      6218      6221      6223      6218      6221      6224      6219      6218      6220
      6219      6218      6221      6220      6218      6221      6221      6224      6225
      6221      6224      6226      6221      6224      6227      6222      6221      6223
      6222      6221      6224      6223      6221      6224      6224      6227      6228
      6224      6227      6229      6225      6224      6226      6225      6224      6227
      6226      6224      6227      6227      6229      6230      6227      6229      6231
      6228      6227      6229      6229      6231      6232      6229      6231      6233
      6229      6231      6234      6230      6229      6231      6231      6234      6235
      6231      6234      6236      6231      6234      6237      6232      6231      6233
      6232      6231      6234      6233      6231      6234      6234      6237      6238
      6234      6237      6239      6234      6237      6240      6235      6234      6236
      6235      6234      6237      6236      6234      6237      6237      6240      6241
      6237      6240      6242      6237      6240      6243      6238      6237      6239
      6238      6237      6240      6239      6237      6240      6240      6243      6244
      6240      6243      6245      6240      6243      6246      6241      6240      6242
      6241      6240      6243      6242      6240      6243      6243      6246      6247
      6243      6246      6248      6243      6246      6249      6244      6243      6245
      6244      6243      6246      6245      6243      6246      6246      6249      6250
      6246      6249      6251      6246      6249      6252      6247      6246      6248
      6247      6246      6249      6248      6246      6249      6249      6252      6253
      6249      6252      6254      6249      6252      6255      6250      6249      6251
      6250      6249      6252      6251      6249      6252      6253      6252      6254
      6253      6252      6255      6254      6252      6255      6256      6259      6260
      6256      6259      6261      6256      6259      6262      6257      6256      6258
      6257      6256      6259      6258      6256      6259      6259      6262      6263
      6259      6262      6264      6259      6262      6265      6260      6259      6261
      6260      6259      6262      6261      6259      6262      6262      6265      6266
      6262      6265      6267      6262      6265      6268      6263      6262      6264
      6263      6262      6265      6264      6262      6265      6265      6268      6269
      6265      6268      6270      6265      6268      6271      6266      6265      6267
      6266      6265      6268      6267      6265      6268      6268      6271      6272
      6268      6271      6273      6268      6271      6274      6269      6268      6270
      6269      6268      6271      6270      6268      6271      6271      6274      6275
      6271      6274      6276      6271      6274      6277      6272      6271      6273
      6272      6271      6274      6273      6271      6274      6274      6277      6278
      6274      6277      6279      6274      6277      6280      6275      6274      6276
      6275      6274      6277      6276      6274      6277      6277      6280      6281
      6277      6280      6282      6277      6280      6283      6278      6277      6279
      6278      6277      6280      6279      6277      6280      6280      6283      6284
      6280      6283      6285      6280      6283      6286      6281      6280      6282
      6281      6280      6283      6282      6280      6283      6283      6286      6287
      6283      6286      6288      6283      6286      6289      6284      6283      6285
      6284      6283      6286      6285      6283      6286      6286      6289      6290
      6286      6289      6291      6286      6289      6292      6287      6286      6288
      6287      6286      6289      6288      6286      6289      6289      6292      6293
      6289      6292      6294      6289      6292      6295      6290      6289      6291
      6290      6289      6292      6291      6289      6292      6292      6295      6296
      6292      6295      6297      6292      6295      6298      6293      6292      6294
      6293      6292      6295      6294      6292      6295      6296      6295      6297
      6296      6295      6298      6297      6295      6298      6299      6300      6301
      6299      6300      6302      6299      6300      6315      6299      6303      6304
      6299      6303      6305      6299      6303      6306      6299      6307      6308
      6299      6307      6309      6299      6307      6310      6299      6311      6312
      6299      6311      6313      6299      6311      6314      6300      6299      6303
      6300      6299      6307      6300      6299      6311      6300      6315      6316
      6300      6315      6317      6300      6315      6321      6301      6300      6302
      6301      6300      6315      6302      6300      6315      6303      6299      6307
      6303      6299      6311      6304      6303      6305      6304      6303      6306
      6305      6303      6306      6307      6299      6311      6308      6307      6309
      6308      6307      6310      6309      6307      6310      6312      6311      6313
      6312      6311      6314      6313      6311      6314      6315      6321      6318
      6316      6315      6317      6316      6315      6321      6317      6315      6321
      6318      6322      6323      6319      6318      6320      6319      6318      6321
      6319      6318      6322      6320      6318      6321      6320      6318      6322
      6321      6318      6322      6322      6323      6324      6322      6323      6325
      6322      6323      6326      6323      6326      6327      6323      6326      6328
      6323      6326      6334      6324      6323      6325      6324      6323      6326
      6325      6323      6326      6326      6328      6329      6326      6334      6335
      6326      6334      6336      6326      6334      6337      6327      6326      6328
      6327      6326      6334      6328      6326      6334      6328      6329      6330
      6328      6329      6331      6329      6331      6332      6329      6331      6333
      6329      6331      6343      6330      6329      6331      6331      6343      6344
      6331      6343      6345      6331      6343      6346      6332      6331      6333
      6332      6331      6343      6333      6331      6343      6334      6337      6338
      6335      6334      6336      6335      6334      6337      6336      6334      6337
      6337      6338      6339      6337      6338      6340      6338      6340      6341
      6338      6340      6342      6338      6340      6390      6339      6338      6340
      6340      6390      6391      6340      6390      6392      6340      6390      6393
      6341      6340      6342      6341      6340      6390      6342      6340      6390
      6343      6346      6347      6343      6346      6348      6343      6346      6349
      6344      6343      6345      6344      6343      6346      6345      6343      6346
      6346      6349      6350      6346      6349      6351      6346      6349      6352
      6347      6346      6348      6347      6346      6349      6348      6346      6349
      6349      6352      6353      6349      6352      6354      6349      6352      6355
      6350      6349      6351      6350      6349      6352      6351      6349      6352
      6352      6355      6356      6352      6355      6357      6352      6355      6358
      6353      6352      6354      6353      6352      6355      6354      6352      6355
      6355      6358      6359      6355      6358      6360      6355      6358      6361
      6356      6355      6357      6356      6355      6358      6357      6355      6358
      6358      6361      6362      6358      6361      6363      6359      6358      6360
      6359      6358      6361      6360      6358      6361      6361      6363      6364
      6361      6363      6365      6362      6361      6363      6363      6365      6366
      6363      6365      6367      6363      6365      6368      6364      6363      6365
      6365      6368      6369      6365      6368      6370      6365      6368      6371
      6366      6365      6367      6366      6365      6368      6367      6365      6368
      6368      6371      6372      6368      6371      6373      6368      6371      6374
      6369      6368      6370      6369      6368      6371      6370      6368      6371
      6371      6374      6375      6371      6374      6376      6371      6374      6377
      6372      6371      6373      6372      6371      6374      6373      6371      6374
      6374      6377      6378      6374      6377      6379      6374      6377      6380
      6375      6374      6376      6375      6374      6377      6376      6374      6377
      6377      6380      6381      6377      6380      6382      6377      6380      6383
      6378      6377      6379      6378      6377      6380      6379      6377      6380
      6380      6383      6384      6380      6383      6385      6380      6383      6386
      6381      6380      6382      6381      6380      6383      6382      6380      6383
      6383      6386      6387      6383      6386      6388      6383      6386      6389
      6384      6383      6385      6384      6383      6386      6385      6383      6386
      6387      6386      6388      6387      6386      6389      6388      6386      6389
      6390      6393      6394      6390      6393      6395      6390      6393      6396
      6391      6390      6392      6391      6390      6393      6392      6390      6393
      6393      6396      6397      6393      6396      6398      6393      6396      6399
      6394      6393      6395      6394      6393      6396      6395      6393      6396
      6396      6399      6400      6396      6399      6401      6396      6399      6402
      6397      6396      6398      6397      6396      6399      6398      6396      6399
      6399      6402      6403      6399      6402      6404      6399      6402      6405
      6400      6399      6401      6400      6399      6402      6401      6399      6402
      6402      6405      6406      6402      6405      6407      6402      6405      6408
      6403      6402      6404      6403      6402      6405      6404      6402      6405
      6405      6408      6409      6405      6408      6410      6405      6408      6411
      6406      6405      6407      6406      6405      6408      6407      6405      6408
      6408      6411      6412      6408      6411      6413      6408      6411      6414
      6409      6408      6410      6409      6408      6411      6410      6408      6411
      6411      6414      6415      6411      6414      6416      6411      6414      6417
      6412      6411      6413      6412      6411      6414      6413      6411      6414
      6414      6417      6418      6414      6417      6419      6414      6417      6420
      6415      6414      6416      6415      6414      6417      6416      6414      6417
      6417      6420      6421      6417      6420      6422      6417      6420      6423
      6418      6417      6419      6418      6417      6420      6419      6417      6420
      6420      6423      6424      6420      6423      6425      6420      6423      6426
      6421      6420      6422      6421      6420      6423      6422      6420      6423
      6423      6426      6427      6423      6426      6428      6423      6426      6429
      6424      6423      6425      6424      6423      6426      6425      6423      6426
      6426      6429      6430      6426      6429      6431      6426      6429      6432
      6427      6426      6428      6427      6426      6429      6428      6426      6429
      6430      6429      6431      6430      6429      6432      6431      6429      6432
      6433      6434      6435      6433      6434      6436      6433      6434      6449
      6433      6437      6438      6433      6437      6439      6433      6437      6440
      6433      6441      6442      6433      6441      6443      6433      6441      6444
      6433      6445      6446      6433      6445      6447      6433      6445      6448
      6434      6433      6437      6434      6433      6441      6434      6433      6445
      6434      6449      6450      6434      6449      6451      6434      6449      6455
      6435      6434      6436      6435      6434      6449      6436      6434      6449
      6437      6433      6441      6437      6433      6445      6438      6437      6439
      6438      6437      6440      6439      6437      6440      6441      6433      6445
      6442      6441      6443      6442      6441      6444      6443      6441      6444
      6446      6445      6447      6446      6445      6448      6447      6445      6448
      6449      6455      6452      6450      6449      6451      6450      6449      6455
      6451      6449      6455      6452      6456      6457      6453      6452      6454
      6453      6452      6455      6453      6452      6456      6454      6452      6455
      6454      6452      6456      6455      6452      6456      6456      6457      6458
      6456      6457      6459      6456      6457      6460      6457      6460      6461
      6457      6460      6462      6457      6460      6468      6458      6457      6459
      6458      6457      6460      6459      6457      6460      6460      6462      6463
      6460      6468      6469      6460      6468      6470      6460      6468      6471
      6461      6460      6462      6461      6460      6468      6462      6460      6468
      6462      6463      6464      6462      6463      6465      6463      6465      6466
      6463      6465      6467      6463      6465      6477      6464      6463      6465
      6465      6477      6478      6465      6477      6479      6465      6477      6480
      6466      6465      6467      6466      6465      6477      6467      6465      6477
      6468      6471      6472      6469      6468      6470      6469      6468      6471
      6470      6468      6471      6471      6472      6473      6471      6472      6474
      6472      6474      6475      6472      6474      6476      6472      6474      6524
      6473      6472      6474      6474      6524      6525      6474      6524      6526
      6474      6524      6527      6475      6474      6476      6475      6474      6524
      6476      6474      6524      6477      6480      6481      6477      6480      6482
      6477      6480      6483      6478      6477      6479      6478      6477      6480
      6479      6477      6480      6480      6483      6484      6480      6483      6485
      6480      6483      6486      6481      6480      6482      6481      6480      6483
      6482      6480      6483      6483      6486      6487      6483      6486      6488
      6483      6486      6489      6484      6483      6485      6484      6483      6486
      6485      6483      6486      6486      6489      6490      6486      6489      6491
      6486      6489      6492      6487      6486      6488      6487      6486      6489
      6488      6486      6489      6489      6492      6493      6489      6492      6494
      6489      6492      6495      6490      6489      6491      6490      6489      6492
      6491      6489      6492      6492      6495      6496      6492      6495      6497
      6493      6492      6494      6493      6492      6495      6494      6492      6495
      6495      6497      6498      6495      6497      6499      6496      6495      6497
      6497      6499      6500      6497      6499      6501      6497      6499      6502
      6498      6497      6499      6499      6502      6503      6499      6502      6504
      6499      6502      6505      6500      6499      6501      6500      6499      6502
      6501      6499      6502      6502      6505      6506      6502      6505      6507
      6502      6505      6508      6503      6502      6504      6503      6502      6505
      6504      6502      6505      6505      6508      6509      6505      6508      6510
      6505      6508      6511      6506      6505      6507      6506      6505      6508
      6507      6505      6508      6508      6511      6512      6508      6511      6513
      6508      6511      6514      6509      6508      6510      6509      6508      6511
      6510      6508      6511      6511      6514      6515      6511      6514      6516
      6511      6514      6517      6512      6511      6513      6512      6511      6514
      6513      6511      6514      6514      6517      6518      6514      6517      6519
      6514      6517      6520      6515      6514      6516      6515      6514      6517
      6516      6514      6517      6517      6520      6521      6517      6520      6522
      6517      6520      6523      6518      6517      6519      6518      6517      6520
      6519      6517      6520      6521      6520      6522      6521      6520      6523
      6522      6520      6523      6524      6527      6528      6524      6527      6529
      6524      6527      6530      6525      6524      6526      6525      6524      6527
      6526      6524      6527      6527      6530      6531      6527      6530      6532
      6527      6530      6533      6528      6527      6529      6528      6527      6530
      6529      6527      6530      6530      6533      6534      6530      6533      6535
      6530      6533      6536      6531      6530      6532      6531      6530      6533
      6532      6530      6533      6533      6536      6537      6533      6536      6538
      6533      6536      6539      6534      6533      6535      6534      6533      6536
      6535      6533      6536      6536      6539      6540      6536      6539      6541
      6536      6539      6542      6537      6536      6538      6537      6536      6539
      6538      6536      6539      6539      6542      6543      6539      6542      6544
      6539      6542      6545      6540      6539      6541      6540      6539      6542
      6541      6539      6542      6542      6545      6546      6542      6545      6547
      6542      6545      6548      6543      6542      6544      6543      6542      6545
      6544      6542      6545      6545      6548      6549      6545      6548      6550
      6545      6548      6551      6546      6545      6547      6546      6545      6548
      6547      6545      6548      6548      6551      6552      6548      6551      6553
      6548      6551      6554      6549      6548      6550      6549      6548      6551
      6550      6548      6551      6551      6554      6555      6551      6554      6556
      6551      6554      6557      6552      6551      6553      6552      6551      6554
      6553      6551      6554      6554      6557      6558      6554      6557      6559
      6554      6557      6560      6555      6554      6556      6555      6554      6557
      6556      6554      6557      6557      6560      6561      6557      6560      6562
      6557      6560      6563      6558      6557      6559      6558      6557      6560
      6559      6557      6560      6560      6563      6564      6560      6563      6565
      6560      6563      6566      6561      6560      6562      6561      6560      6563
      6562      6560      6563      6564      6563      6565      6564      6563      6566
      6565      6563      6566      6567      6568      6569      6567      6568      6570
      6567      6568      6583      6567      6571      6572      6567      6571      6573
      6567      6571      6574      6567      6575      6576      6567      6575      6577
      6567      6575      6578      6567      6579      6580      6567      6579      6581
      6567      6579      6582      6568      6567      6571      6568      6567      6575
      6568      6567      6579      6568      6583      6584      6568      6583      6585
      6568      6583      6589      6569      6568      6570      6569      6568      6583
      6570      6568      6583      6571      6567      6575      6571      6567      6579
      6572      6571      6573      6572      6571      6574      6573      6571      6574
      6575      6567      6579      6576      6575      6577      6576      6575      6578
      6577      6575      6578      6580      6579      6581      6580      6579      6582
      6581      6579      6582      6583      6589      6586      6584      6583      6585
      6584      6583      6589      6585      6583      6589      6586      6590      6591
      6587      6586      6588      6587      6586      6589      6587      6586      6590
      6588      6586      6589      6588      6586      6590      6589      6586      6590
      6590      6591      6592      6590      6591      6593      6590      6591      6594
      6591      6594      6595      6591      6594      6596      6591      6594      6602
      6592      6591      6593      6592      6591      6594      6593      6591      6594
      6594      6596      6597      6594      6602      6603      6594      6602      6604
      6594      6602      6605      6595      6594      6596      6595      6594      6602
      6596      6594      6602      6596      6597      6598      6596      6597      6599
      6597      6599      6600      6597      6599      6601      6597      6599      6611
      6598      6597      6599      6599      6611      6612      6599      6611      6613
      6599      6611      6614      6600      6599      6601      6600      6599      6611
      6601      6599      6611      6602      6605      6606      6603      6602      6604
      6603      6602      6605      6604      6602      6605      6605      6606      6607
      6605      6606      6608      6606      6608      6609      6606      6608      6610
      6606      6608      6658      6607      6606      6608      6608      6658      6659
      6608      6658      6660      6608      6658      6661      6609      6608      6610
      6609      6608      6658      6610      6608      6658      6611      6614      6615
      6611      6614      6616      6611      6614      6617      6612      6611      6613
      6612      6611      6614      6613      6611      6614      6614      6617      6618
      6614      6617      6619      6614      6617      6620      6615      6614      6616
      6615      6614      6617      6616      6614      6617      6617      6620      6621
      6617      6620      6622      6617      6620      6623      6618      6617      6619
      6618      6617      6620      6619      6617      6620      6620      6623      6624
      6620      6623      6625      6620      6623      6626      6621      6620      6622
      6621      6620      6623      6622      6620      6623      6623      6626      6627
      6623      6626      6628      6623      6626      6629      6624      6623      6625
      6624      6623      6626      6625      6623      6626      6626      6629      6630
      6626      6629      6631      6627      6626      6628      6627      6626      6629
      6628      6626      6629      6629      6631      6632      6629      6631      6633
      6630      6629      6631      6631      6633      6634      6631      6633      6635
      6631      6633      6636      6632      6631      6633      6633      6636      6637
      6633      6636      6638      6633      6636      6639      6634      6633      6635
      6634      6633      6636      6635      6633      6636      6636      6639      6640
      6636      6639      6641      6636      6639      6642      6637      6636      6638
      6637      6636      6639      6638      6636      6639      6639      6642      6643
      6639      6642      6644      6639      6642      6645      6640      6639      6641
      6640      6639      6642      6641      6639      6642      6642      6645      6646
      6642      6645      6647      6642      6645      6648      6643      6642      6644
      6643      6642      6645      6644      6642      6645      6645      6648      6649
      6645      6648      6650      6645      6648      6651      6646      6645      6647
      6646      6645      6648      6647      6645      6648      6648      6651      6652
      6648      6651      6653      6648      6651      6654      6649      6648      6650
      6649      6648      6651      6650      6648      6651      6651      6654      6655
      6651      6654      6656      6651      6654      6657      6652      6651      6653
      6652      6651      6654      6653      6651      6654      6655      6654      6656
      6655      6654      6657      6656      6654      6657      6658      6661      6662
      6658      6661      6663      6658      6661      6664      6659      6658      6660
      6659      6658      6661      6660      6658      6661      6661      6664      6665
      6661      6664      6666      6661      6664      6667      6662      6661      6663
      6662      6661      6664      6663      6661      6664      6664      6667      6668
      6664      6667      6669      6664      6667      6670      6665      6664      6666
      6665      6664      6667      6666      6664      6667      6667      6670      6671
      6667      6670      6672      6667      6670      6673      6668      6667      6669
      6668      6667      6670      6669      6667      6670      6670      6673      6674
      6670      6673      6675      6670      6673      6676      6671      6670      6672
      6671      6670      6673      6672      6670      6673      6673      6676      6677
      6673      6676      6678      6673      6676      6679      6674      6673      6675
      6674      6673      6676      6675      6673      6676      6676      6679      6680
      6676      6679      6681      6676      6679      6682      6677      6676      6678
      6677      6676      6679      6678      6676      6679      6679      6682      6683
      6679      6682      6684      6679      6682      6685      6680      6679      6681
      6680      6679      6682      6681      6679      6682      6682      6685      6686
      6682      6685      6687      6682      6685      6688      6683      6682      6684
      6683      6682      6685      6684      6682      6685      6685      6688      6689
      6685      6688      6690      6685      6688      6691      6686      6685      6687
      6686      6685      6688      6687      6685      6688      6688      6691      6692
      6688      6691      6693      6688      6691      6694      6689      6688      6690
      6689      6688      6691      6690      6688      6691      6691      6694      6695
      6691      6694      6696      6691      6694      6697      6692      6691      6693
      6692      6691      6694      6693      6691      6694      6694      6697      6698
      6694      6697      6699      6694      6697      6700      6695      6694      6696
      6695      6694      6697      6696      6694      6697      6698      6697      6699
      6698      6697      6700      6699      6697      6700      6701      6702      6703
      6701      6702      6704      6701      6702      6717      6701      6705      6706
      6701      6705      6707      6701      6705      6708      6701      6709      6710
      6701      6709      6711      6701      6709      6712      6701      6713      6714
      6701      6713      6715      6701      6713      6716      6702      6701      6705
      6702      6701      6709      6702      6701      6713      6702      6717      6718
      6702      6717      6719      6702      6717      6723      6703      6702      6704
      6703      6702      6717      6704      6702      6717      6705      6701      6709
      6705      6701      6713      6706      6705      6707      6706      6705      6708
      6707      6705      6708      6709      6701      6713      6710      6709      6711
      6710      6709      6712      6711      6709      6712      6714      6713      6715
      6714      6713      6716      6715      6713      6716      6717      6723      6720
      6718      6717      6719      6718      6717      6723      6719      6717      6723
      6720      6724      6725      6721      6720      6722      6721      6720      6723
      6721      6720      6724      6722      6720      6723      6722      6720      6724
      6723      6720      6724      6724      6725      6726      6724      6725      6727
      6724      6725      6728      6725      6728      6729      6725      6728      6730
      6725      6728      6736      6726      6725      6727      6726      6725      6728
      6727      6725      6728      6728      6730      6731      6728      6736      6737
      6728      6736      6738      6728      6736      6739      6729      6728      6730
      6729      6728      6736      6730      6728      6736      6730      6731      6732
      6730      6731      6733      6731      6733      6734      6731      6733      6735
      6731      6733      6745      6732      6731      6733      6733      6745      6746
      6733      6745      6747      6733      6745      6748      6734      6733      6735
      6734      6733      6745      6735      6733      6745      6736      6739      6740
      6737      6736      6738      6737      6736      6739      6738      6736      6739
      6739      6740      6741      6739      6740      6742      6740      6742      6743
      6740      6742      6744      6740      6742      6792      6741      6740      6742
      6742      6792      6793      6742      6792      6794      6742      6792      6795
      6743      6742      6744      6743      6742      6792      6744      6742      6792
      6745      6748      6749      6745      6748      6750      6745      6748      6751
      6746      6745      6747      6746      6745      6748      6747      6745      6748
      6748      6751      6752      6748      6751      6753      6748      6751      6754
      6749      6748      6750      6749      6748      6751      6750      6748      6751
      6751      6754      6755      6751      6754      6756      6751      6754      6757
      6752      6751      6753      6752      6751      6754      6753      6751      6754
      6754      6757      6758      6754      6757      6759      6754      6757      6760
      6755      6754      6756      6755      6754      6757      6756      6754      6757
      6757      6760      6761      6757      6760      6762      6757      6760      6763
      6758      6757      6759      6758      6757      6760      6759      6757      6760
      6760      6763      6764      6760      6763      6765      6761      6760      6762
      6761      6760      6763      6762      6760      6763      6763      6765      6766
      6763      6765      6767      6764      6763      6765      6765      6767      6768
      6765      6767      6769      6765      6767      6770      6766      6765      6767
      6767      6770      6771      6767      6770      6772      6767      6770      6773
      6768      6767      6769      6768      6767      6770      6769      6767      6770
      6770      6773      6774      6770      6773      6775      6770      6773      6776
      6771      6770      6772      6771      6770      6773      6772      6770      6773
      6773      6776      6777      6773      6776      6778      6773      6776      6779
      6774      6773      6775      6774      6773      6776      6775      6773      6776
      6776      6779      6780      6776      6779      6781      6776      6779      6782
      6777      6776      6778      6777      6776      6779      6778      6776      6779
      6779      6782      6783      6779      6782      6784      6779      6782      6785
      6780      6779      6781      6780      6779      6782      6781      6779      6782
      6782      6785      6786      6782      6785      6787      6782      6785      6788
      6783      6782      6784      6783      6782      6785      6784      6782      6785
      6785      6788      6789      6785      6788      6790      6785      6788      6791
      6786      6785      6787      6786      6785      6788      6787      6785      6788
      6789      6788      6790      6789      6788      6791      6790      6788      6791
      6792      6795      6796      6792      6795      6797      6792      6795      6798
      6793      6792      6794      6793      6792      6795      6794      6792      6795
      6795      6798      6799      6795      6798      6800      6795      6798      6801
      6796      6795      6797      6796      6795      6798      6797      6795      6798
      6798      6801      6802      6798      6801      6803      6798      6801      6804
      6799      6798      6800      6799      6798      6801      6800      6798      6801
      6801      6804      6805      6801      6804      6806      6801      6804      6807
      6802      6801      6803      6802      6801      6804      6803      6801      6804
      6804      6807      6808      6804      6807      6809      6804      6807      6810
      6805      6804      6806      6805      6804      6807      6806      6804      6807
      6807      6810      6811      6807      6810      6812      6807      6810      6813
      6808      6807      6809      6808      6807      6810      6809      6807      6810
      6810      6813      6814      6810      6813      6815      6810      6813      6816
      6811      6810      6812      6811      6810      6813      6812      6810      6813
      6813      6816      6817      6813      6816      6818      6813      6816      6819
      6814      6813      6815      6814      6813      6816      6815      6813      6816
      6816      6819      6820      6816      6819      6821      6816      6819      6822
      6817      6816      6818      6817      6816      6819      6818      6816      6819
      6819      6822      6823      6819      6822      6824      6819      6822      6825
      6820      6819      6821      6820      6819      6822      6821      6819      6822
      6822      6825      6826      6822      6825      6827      6822      6825      6828
      6823      6822      6824      6823      6822      6825      6824      6822      6825
      6825      6828      6829      6825      6828      6830      6825      6828      6831
      6826      6825      6827      6826      6825      6828      6827      6825      6828
      6828      6831      6832      6828      6831      6833      6828      6831      6834
      6829      6828      6830      6829      6828      6831      6830      6828      6831
      6832      6831      6833      6832      6831      6834      6833      6831      6834
      6835      6836      6837      6835      6836      6838      6835      6836      6851
      6835      6839      6840      6835      6839      6841      6835      6839      6842
      6835      6843      6844      6835      6843      6845      6835      6843      6846
      6835      6847      6848      6835      6847      6849      6835      6847      6850
      6836      6835      6839      6836      6835      6843      6836      6835      6847
      6836      6851      6852      6836      6851      6853      6836      6851      6857
      6837      6836      6838      6837      6836      6851      6838      6836      6851
      6839      6835      6843      6839      6835      6847      6840      6839      6841
      6840      6839      6842      6841      6839      6842      6843      6835      6847
      6844      6843      6845      6844      6843      6846      6845      6843      6846
      6848      6847      6849      6848      6847      6850      6849      6847      6850
      6851      6857      6854      6852      6851      6853      6852      6851      6857
      6853      6851      6857      6854      6858      6859      6855      6854      6856
      6855      6854      6857      6855      6854      6858      6856      6854      6857
      6856      6854      6858      6857      6854      6858      6858      6859      6860
      6858      6859      6861      6858      6859      6862      6859      6862      6863
      6859      6862      6864      6859      6862      6870      6860      6859      6861
      6860      6859      6862      6861      6859      6862      6862      6864      6865
      6862      6870      6871      6862      6870      6872      6862      6870      6873
      6863      6862      6864      6863      6862      6870      6864      6862      6870
      6864      6865      6866      6864      6865      6867      6865      6867      6868
      6865      6867      6869      6865      6867      6879      6866      6865      6867
      6867      6879      6880      6867      6879      6881      6867      6879      6882
      6868      6867      6869      6868      6867      6879      6869      6867      6879
      6870      6873      6874      6871      6870      6872      6871      6870      6873
      6872      6870      6873      6873      6874      6875      6873      6874      6876
      6874      6876      6877      6874      6876      6878      6874      6876      6926
      6875      6874      6876      6876      6926      6927      6876      6926      6928
      6876      6926      6929      6877      6876      6878      6877      6876      6926
      6878      6876      6926      6879      6882      6883      6879      6882      6884
      6879      6882      6885      6880      6879      6881      6880      6879      6882
      6881      6879      6882      6882      6885      6886      6882      6885      6887
      6882      6885      6888      6883      6882      6884      6883      6882      6885
      6884      6882      6885      6885      6888      6889      6885      6888      6890
      6885      6888      6891      6886      6885      6887      6886      6885      6888
      6887      6885      6888      6888      6891      6892      6888      6891      6893
      6888      6891      6894      6889      6888      6890      6889      6888      6891
      6890      6888      6891      6891      6894      6895      6891      6894      6896
      6891      6894      6897      6892      6891      6893      6892      6891      6894
      6893      6891      6894      6894      6897      6898      6894      6897      6899
      6895      6894      6896      6895      6894      6897      6896      6894      6897
      6897      6899      6900      6897      6899      6901      6898      6897      6899
      6899      6901      6902      6899      6901      6903      6899      6901      6904
      6900      6899      6901      6901      6904      6905      6901      6904      6906
      6901      6904      6907      6902      6901      6903      6902      6901      6904
      6903      6901      6904      6904      6907      6908      6904      6907      6909
      6904      6907      6910      6905      6904      6906      6905      6904      6907
      6906      6904      6907      6907      6910      6911      6907      6910      6912
      6907      6910      6913      6908      6907      6909      6908      6907      6910
      6909      6907      6910      6910      6913      6914      6910      6913      6915
      6910      6913      6916      6911      6910      6912      6911      6910      6913
      6912      6910      6913      6913      6916      6917      6913      6916      6918
      6913      6916      6919      6914      6913      6915      6914      6913      6916
      6915      6913      6916      6916      6919      6920      6916      6919      6921
      6916      6919      6922      6917      6916      6918      6917      6916      6919
      6918      6916      6919      6919      6922      6923      6919      6922      6924
      6919      6922      6925      6920      6919      6921      6920      6919      6922
      6921      6919      6922      6923      6922      6924      6923      6922      6925
      6924      6922      6925      6926      6929      6930      6926      6929      6931
      6926      6929      6932      6927      6926      6928      6927      6926      6929
      6928      6926      6929      6929      6932      6933      6929      6932      6934
      6929      6932      6935      6930      6929      6931      6930      6929      6932
      6931      6929      6932      6932      6935      6936      6932      6935      6937
      6932      6935      6938      6933      6932      6934      6933      6932      6935
      6934      6932      6935      6935      6938      6939      6935      6938      6940
      6935      6938      6941      6936      6935      6937      6936      6935      6938
      6937      6935      6938      6938      6941      6942      6938      6941      6943
      6938      6941      6944      6939      6938      6940      6939      6938      6941
      6940      6938      6941      6941      6944      6945      6941      6944      6946
      6941      6944      6947      6942      6941      6943      6942      6941      6944
      6943      6941      6944      6944      6947      6948      6944      6947      6949
      6944      6947      6950      6945      6944      6946      6945      6944      6947
      6946      6944      6947      6947      6950      6951      6947      6950      6952
      6947      6950      6953      6948      6947      6949      6948      6947      6950
      6949      6947      6950      6950      6953      6954      6950      6953      6955
      6950      6953      6956      6951      6950      6952      6951      6950      6953
      6952      6950      6953      6953      6956      6957      6953      6956      6958
      6953      6956      6959      6954      6953      6955      6954      6953      6956
      6955      6953      6956      6956      6959      6960      6956      6959      6961
      6956      6959      6962      6957      6956      6958      6957      6956      6959
      6958      6956      6959      6959      6962      6963      6959      6962      6964
      6959      6962      6965      6960      6959      6961      6960      6959      6962
      6961      6959      6962      6962      6965      6966      6962      6965      6967
      6962      6965      6968      6963      6962      6964      6963      6962      6965
      6964      6962      6965      6966      6965      6967      6966      6965      6968
      6967      6965      6968      6969      6970      6971      6969      6970      6972
      6969      6970      6985      6969      6973      6974      6969      6973      6975
      6969      6973      6976      6969      6977      6978      6969      6977      6979
      6969      6977      6980      6969      6981      6982      6969      6981      6983
      6969      6981      6984      6970      6969      6973      6970      6969      6977
      6970      6969      6981      6970      6985      6986      6970      6985      6987
      6970      6985      6991      6971      6970      6972      6971      6970      6985
      6972      6970      6985      6973      6969      6977      6973      6969      6981
      6974      6973      6975      6974      6973      6976      6975      6973      6976
      6977      6969      6981      6978      6977      6979      6978      6977      6980
      6979      6977      6980      6982      6981      6983      6982      6981      6984
      6983      6981      6984      6985      6991      6988      6986      6985      6987
      6986      6985      6991      6987      6985      6991      6988      6992      6993
      6989      6988      6990      6989      6988      6991      6989      6988      6992
      6990      6988      6991      6990      6988      6992      6991      6988      6992
      6992      6993      6994      6992      6993      6995      6992      6993      6996
      6993      6996      6997      6993      6996      6998      6993      6996      7004
      6994      6993      6995      6994      6993      6996      6995      6993      6996
      6996      6998      6999      6996      7004      7005      6996      7004      7006
      6996      7004      7007      6997      6996      6998      6997      6996      7004
      6998      6996      7004      6998      6999      7000      6998      6999      7001
      6999      7001      7002      6999      7001      7003      6999      7001      7013
      7000      6999      7001      7001      7013      7014      7001      7013      7015
      7001      7013      7016      7002      7001      7003      7002      7001      7013
      7003      7001      7013      7004      7007      7008      7005      7004      7006
      7005      7004      7007      7006      7004      7007      7007      7008      7009
      7007      7008      7010      7008      7010      7011      7008      7010      7012
      7008      7010      7060      7009      7008      7010      7010      7060      7061
      7010      7060      7062      7010      7060      7063      7011      7010      7012
      7011      7010      7060      7012      7010      7060      7013      7016      7017
      7013      7016      7018      7013      7016      7019      7014      7013      7015
      7014      7013      7016      7015      7013      7016      7016      7019      7020
      7016      7019      7021      7016      7019      7022      7017      7016      7018
      7017      7016      7019      7018      7016      7019      7019      7022      7023
      7019      7022      7024      7019      7022      7025      7020      7019      7021
      7020      7019      7022      7021      7019      7022      7022      7025      7026
      7022      7025      7027      7022      7025      7028      7023      7022      7024
      7023      7022      7025      7024      7022      7025      7025      7028      7029
      7025      7028      7030      7025      7028      7031      7026      7025      7027
      7026      7025      7028      7027      7025      7028      7028      7031      7032
      7028      7031      7033      7029      7028      7030      7029      7028      7031
      7030      7028      7031      7031      7033      7034      7031      7033      7035
      7032      7031      7033      7033      7035      7036      7033      7035      7037
      7033      7035      7038      7034      7033      7035      7035      7038      7039
      7035      7038      7040      7035      7038      7041      7036      7035      7037
      7036      7035      7038      7037      7035      7038      7038      7041      7042
      7038      7041      7043      7038      7041      7044      7039      7038      7040
      7039      7038      7041      7040      7038      7041      7041      7044      7045
      7041      7044      7046      7041      7044      7047      7042      7041      7043
      7042      7041      7044      7043      7041      7044      7044      7047      7048
      7044      7047      7049      7044      7047      7050      7045      7044      7046
      7045      7044      7047      7046      7044      7047      7047      7050      7051
      7047      7050      7052      7047      7050      7053      7048      7047      7049
      7048      7047      7050      7049      7047      7050      7050      7053      7054
      7050      7053      7055      7050      7053      7056      7051      7050      7052
      7051      7050      7053      7052      7050      7053      7053      7056      7057
      7053      7056      7058      7053      7056      7059      7054      7053      7055
      7054      7053      7056      7055      7053      7056      7057      7056      7058
      7057      7056      7059      7058      7056      7059      7060      7063      7064
      7060      7063      7065      7060      7063      7066      7061      7060      7062
      7061      7060      7063      7062      7060      7063      7063      7066      7067
      7063      7066      7068      7063      7066      7069      7064      7063      7065
      7064      7063      7066      7065      7063      7066      7066      7069      7070
      7066      7069      7071      7066      7069      7072      7067      7066      7068
      7067      7066      7069      7068      7066      7069      7069      7072      7073
      7069      7072      7074      7069      7072      7075      7070      7069      7071
      7070      7069      7072      7071      7069      7072      7072      7075      7076
      7072      7075      7077      7072      7075      7078      7073      7072      7074
      7073      7072      7075      7074      7072      7075      7075      7078      7079
      7075      7078      7080      7075      7078      7081      7076      7075      7077
      7076      7075      7078      7077      7075      7078      7078      7081      7082
      7078      7081      7083      7078      7081      7084      7079      7078      7080
      7079      7078      7081      7080      7078      7081      7081      7084      7085
      7081      7084      7086      7081      7084      7087      7082      7081      7083
      7082      7081      7084      7083      7081      7084      7084      7087      7088
      7084      7087      7089      7084      7087      7090      7085      7084      7086
      7085      7084      7087      7086      7084      7087      7087      7090      7091
      7087      7090      7092      7087      7090      7093      7088      7087      7089
      7088      7087      7090      7089      7087      7090      7090      7093      7094
      7090      7093      7095      7090      7093      7096      7091      7090      7092
      7091      7090      7093      7092      7090      7093      7093      7096      7097
      7093      7096      7098      7093      7096      7099      7094      7093      7095
      7094      7093      7096      7095      7093      7096      7096      7099      7100
      7096      7099      7101      7096      7099      7102      7097      7096      7098
      7097      7096      7099      7098      7096      7099      7100      7099      7101
      7100      7099      7102      7101      7099      7102      7103      7104      7105
      7103      7104      7106      7103      7104      7119      7103      7107      7108
      7103      7107      7109      7103      7107      7110      7103      7111      7112
      7103      7111      7113      7103      7111      7114      7103      7115      7116
      7103      7115      7117      7103      7115      7118      7104      7103      7107
      7104      7103      7111      7104      7103      7115      7104      7119      7120
      7104      7119      7121      7104      7119      7125      7105      7104      7106
      7105      7104      7119      7106      7104      7119      7107      7103      7111
      7107      7103      7115      7108      7107      7109      7108      7107      7110
      7109      7107      7110      7111      7103      7115      7112      7111      7113
      7112      7111      7114      7113      7111      7114      7116      7115      7117
      7116      7115      7118      7117      7115      7118      7119      7125      7122
      7120      7119      7121      7120      7119      7125      7121      7119      7125
      7122      7126      7127      7123      7122      7124      7123      7122      7125
      7123      7122      7126      7124      7122      7125      7124      7122      7126
      7125      7122      7126      7126      7127      7128      7126      7127      7129
      7126      7127      7130      7127      7130      7131      7127      7130      7132
      7127      7130      7138      7128      7127      7129      7128      7127      7130
      7129      7127      7130      7130      7132      7133      7130      7138      7139
      7130      7138      7140      7130      7138      7141      7131      7130      7132
      7131      7130      7138      7132      7130      7138      7132      7133      7134
      7132      7133      7135      7133      7135      7136      7133      7135      7137
      7133      7135      7147      7134      7133      7135      7135      7147      7148
      7135      7147      7149      7135      7147      7150      7136      7135      7137
      7136      7135      7147      7137      7135      7147      7138      7141      7142
      7139      7138      7140      7139      7138      7141      7140      7138      7141
      7141      7142      7143      7141      7142      7144      7142      7144      7145
      7142      7144      7146      7142      7144      7194      7143      7142      7144
      7144      7194      7195      7144      7194      7196      7144      7194      7197
      7145      7144      7146      7145      7144      7194      7146      7144      7194
      7147      7150      7151      7147      7150      7152      7147      7150      7153
      7148      7147      7149      7148      7147      7150      7149      7147      7150
      7150      7153      7154      7150      7153      7155      7150      7153      7156
      7151      7150      7152      7151      7150      7153      7152      7150      7153
      7153      7156      7157      7153      7156      7158      7153      7156      7159
      7154      7153      7155      7154      7153      7156      7155      7153      7156
      7156      7159      7160      7156      7159      7161      7156      7159      7162
      7157      7156      7158      7157      7156      7159      7158      7156      7159
      7159      7162      7163      7159      7162      7164      7159      7162      7165
      7160      7159      7161      7160      7159      7162      7161      7159      7162
      7162      7165      7166      7162      7165      7167      7163      7162      7164
      7163      7162      7165      7164      7162      7165      7165      7167      7168
      7165      7167      7169      7166      7165      7167      7167      7169      7170
      7167      7169      7171      7167      7169      7172      7168      7167      7169
      7169      7172      7173      7169      7172      7174      7169      7172      7175
      7170      7169      7171      7170      7169      7172      7171      7169      7172
      7172      7175      7176      7172      7175      7177      7172      7175      7178
      7173      7172      7174      7173      7172      7175      7174      7172      7175
      7175      7178      7179      7175      7178      7180      7175      7178      7181
      7176      7175      7177      7176      7175      7178      7177      7175      7178
      7178      7181      7182      7178      7181      7183      7178      7181      7184
      7179      7178      7180      7179      7178      7181      7180      7178      7181
      7181      7184      7185      7181      7184      7186      7181      7184      7187
      7182      7181      7183      7182      7181      7184      7183      7181      7184
      7184      7187      7188      7184      7187      7189      7184      7187      7190
      7185      7184      7186      7185      7184      7187      7186      7184      7187
      7187      7190      7191      7187      7190      7192      7187      7190      7193
      7188      7187      7189      7188      7187      7190      7189      7187      7190
      7191      7190      7192      7191      7190      7193      7192      7190      7193
      7194      7197      7198      7194      7197      7199      7194      7197      7200
      7195      7194      7196      7195      7194      7197      7196      7194      7197
      7197      7200      7201      7197      7200      7202      7197      7200      7203
      7198      7197      7199      7198      7197      7200      7199      7197      7200
      7200      7203      7204      7200      7203      7205      7200      7203      7206
      7201      7200      7202      7201      7200      7203      7202      7200      7203
      7203      7206      7207      7203      7206      7208      7203      7206      7209
      7204      7203      7205      7204      7203      7206      7205      7203      7206
      7206      7209      7210      7206      7209      7211      7206      7209      7212
      7207      7206      7208      7207      7206      7209      7208      7206      7209
      7209      7212      7213      7209      7212      7214      7209      7212      7215
      7210      7209      7211      7210      7209      7212      7211      7209      7212
      7212      7215      7216      7212      7215      7217      7212      7215      7218
      7213      7212      7214      7213      7212      7215      7214      7212      7215
      7215      7218      7219      7215      7218      7220      7215      7218      7221
      7216      7215      7217      7216      7215      7218      7217      7215      7218
      7218      7221      7222      7218      7221      7223      7218      7221      7224
      7219      7218      7220      7219      7218      7221      7220      7218      7221
      7221      7224      7225      7221      7224      7226      7221      7224      7227
      7222      7221      7223      7222      7221      7224      7223      7221      7224
      7224      7227      7228      7224      7227      7229      7224      7227      7230
      7225      7224      7226      7225      7224      7227      7226      7224      7227
      7227      7230      7231      7227      7230      7232      7227      7230      7233
      7228      7227      7229      7228      7227      7230      7229      7227      7230
      7230      7233      7234      7230      7233      7235      7230      7233      7236
      7231      7230      7232      7231      7230      7233      7232      7230      7233
      7234      7233      7235      7234      7233      7236      7235      7233      7236
      7237      7238      7239      7237      7238      7240      7237      7238      7253
      7237      7241      7242      7237      7241      7243      7237      7241      7244
      7237      7245      7246      7237      7245      7247      7237      7245      7248
      7237      7249      7250      7237      7249      7251      7237      7249      7252
      7238      7237      7241      7238      7237      7245      7238      7237      7249
      7238      7253      7254      7238      7253      7255      7238      7253      7259
      7239      7238      7240      7239      7238      7253      7240      7238      7253
      7241      7237      7245      7241      7237      7249      7242      7241      7243
      7242      7241      7244      7243      7241      7244      7245      7237      7249
      7246      7245      7247      7246      7245      7248      7247      7245      7248
      7250      7249      7251      7250      7249      7252      7251      7249      7252
      7253      7259      7256      7254      7253      7255      7254      7253      7259
      7255      7253      7259      7256      7260      7261      7257      7256      7258
      7257      7256      7259      7257      7256      7260      7258      7256      7259
      7258      7256      7260      7259      7256      7260      7260      7261      7262
      7260      7261      7263      7260      7261      7264      7261      7264      7265
      7261      7264      7266      7261      7264      7272      7262      7261      7263
      7262      7261      7264      7263      7261      7264      7264      7266      7267
      7264      7272      7273      7264      7272      7274      7264      7272      7275
      7265      7264      7266      7265      7264      7272      7266      7264      7272
      7266      7267      7268      7266      7267      7269      7267      7269      7270
      7267      7269      7271      7267      7269      7281      7268      7267      7269
      7269      7281      7282      7269      7281      7283      7269      7281      7284
      7270      7269      7271      7270      7269      7281      7271      7269      7281
      7272      7275      7276      7273      7272      7274      7273      7272      7275
      7274      7272      7275      7275      7276      7277      7275      7276      7278
      7276      7278      7279      7276      7278      7280      7276      7278      7328
      7277      7276      7278      7278      7328      7329      7278      7328      7330
      7278      7328      7331      7279      7278      7280      7279      7278      7328
      7280      7278      7328      7281      7284      7285      7281      7284      7286
      7281      7284      7287      7282      7281      7283      7282      7281      7284
      7283      7281      7284      7284      7287      7288      7284      7287      7289
      7284      7287      7290      7285      7284      7286      7285      7284      7287
      7286      7284      7287      7287      7290      7291      7287      7290      7292
      7287      7290      7293      7288      7287      7289      7288      7287      7290
      7289      7287      7290      7290      7293      7294      7290      7293      7295
      7290      7293      7296      7291      7290      7292      7291      7290      7293
      7292      7290      7293      7293      7296      7297      7293      7296      7298
      7293      7296      7299      7294      7293      7295      7294      7293      7296
      7295      7293      7296      7296      7299      7300      7296      7299      7301
      7297      7296      7298      7297      7296      7299      7298      7296      7299
      7299      7301      7302      7299      7301      7303      7300      7299      7301
      7301      7303      7304      7301      7303      7305      7301      7303      7306
      7302      7301      7303      7303      7306      7307      7303      7306      7308
      7303      7306      7309      7304      7303      7305      7304      7303      7306
      7305      7303      7306      7306      7309      7310      7306      7309      7311
      7306      7309      7312      7307      7306      7308      7307      7306      7309
      7308      7306      7309      7309      7312      7313      7309      7312      7314
      7309      7312      7315      7310      7309      7311      7310      7309      7312
      7311      7309      7312      7312      7315      7316      7312      7315      7317
      7312      7315      7318      7313      7312      7314      7313      7312      7315
      7314      7312      7315      7315      7318      7319      7315      7318      7320
      7315      7318      7321      7316      7315      7317      7316      7315      7318
      7317      7315      7318      7318      7321      7322      7318      7321      7323
      7318      7321      7324      7319      7318      7320      7319      7318      7321
      7320      7318      7321      7321      7324      7325      7321      7324      7326
      7321      7324      7327      7322      7321      7323      7322      7321      7324
      7323      7321      7324      7325      7324      7326      7325      7324      7327
      7326      7324      7327      7328      7331      7332      7328      7331      7333
      7328      7331      7334      7329      7328      7330      7329      7328      7331
      7330      7328      7331      7331      7334      7335      7331      7334      7336
      7331      7334      7337      7332      7331      7333      7332      7331      7334
      7333      7331      7334      7334      7337      7338      7334      7337      7339
      7334      7337      7340      7335      7334      7336      7335      7334      7337
      7336      7334      7337      7337      7340      7341      7337      7340      7342
      7337      7340      7343      7338      7337      7339      7338      7337      7340
      7339      7337      7340      7340      7343      7344      7340      7343      7345
      7340      7343      7346      7341      7340      7342      7341      7340      7343
      7342      7340      7343      7343      7346      7347      7343      7346      7348
      7343      7346      7349      7344      7343      7345      7344      7343      7346
      7345      7343      7346      7346      7349      7350      7346      7349      7351
      7346      7349      7352      7347      7346      7348      7347      7346      7349
      7348      7346      7349      7349      7352      7353      7349      7352      7354
      7349      7352      7355      7350      7349      7351      7350      7349      7352
      7351      7349      7352      7352      7355      7356      7352      7355      7357
      7352      7355      7358      7353      7352      7354      7353      7352      7355
      7354      7352      7355      7355      7358      7359      7355      7358      7360
      7355      7358      7361      7356      7355      7357      7356      7355      7358
      7357      7355      7358      7358      7361      7362      7358      7361      7363
      7358      7361      7364      7359      7358      7360      7359      7358      7361
      7360      7358      7361      7361      7364      7365      7361      7364      7366
      7361      7364      7367      7362      7361      7363      7362      7361      7364
      7363      7361      7364      7364      7367      7368      7364      7367      7369
      7364      7367      7370      7365      7364      7366      7365      7364      7367
      7366      7364      7367      7368      7367      7369      7368      7367      7370
      7369      7367      7370      7371      7372      7373      7371      7372      7374
      7371      7372      7387      7371      7375      7376      7371      7375      7377
      7371      7375      7378      7371      7379      7380      7371      7379      7381
      7371      7379      7382      7371      7383      7384      7371      7383      7385
      7371      7383      7386      7372      7371      7375      7372      7371      7379
      7372      7371      7383      7372      7387      7388      7372      7387      7389
      7372      7387      7393      7373      7372      7374      7373      7372      7387
      7374      7372      7387      7375      7371      7379      7375      7371      7383
      7376      7375      7377      7376      7375      7378      7377      7375      7378
      7379      7371      7383      7380      7379      7381      7380      7379      7382
      7381      7379      7382      7384      7383      7385      7384      7383      7386
      7385      7383      7386      7387      7393      7390      7388      7387      7389
      7388      7387      7393      7389      7387      7393      7390      7394      7395
      7391      7390      7392      7391      7390      7393      7391      7390      7394
      7392      7390      7393      7392      7390      7394      7393      7390      7394
      7394      7395      7396      7394      7395      7397      7394      7395      7398
      7395      7398      7399      7395      7398      7400      7395      7398      7406
      7396      7395      7397      7396      7395      7398      7397      7395      7398
      7398      7400      7401      7398      7406      7407      7398      7406      7408
      7398      7406      7409      7399      7398      7400      7399      7398      7406
      7400      7398      7406      7400      7401      7402      7400      7401      7403
      7401      7403      7404      7401      7403      7405      7401      7403      7415
      7402      7401      7403      7403      7415      7416      7403      7415      7417
      7403      7415      7418      7404      7403      7405      7404      7403      7415
      7405      7403      7415      7406      7409      7410      7407      7406      7408
      7407      7406      7409      7408      7406      7409      7409      7410      7411
      7409      7410      7412      7410      7412      7413      7410      7412      7414
      7410      7412      7462      7411      7410      7412      7412      7462      7463
      7412      7462      7464      7412      7462      7465      7413      7412      7414
      7413      7412      7462      7414      7412      7462      7415      7418      7419
      7415      7418      7420      7415      7418      7421      7416      7415      7417
      7416      7415      7418      7417      7415      7418      7418      7421      7422
      7418      7421      7423      7418      7421      7424      7419      7418      7420
      7419      7418      7421      7420      7418      7421      7421      7424      7425
      7421      7424      7426      7421      7424      7427      7422      7421      7423
      7422      7421      7424      7423      7421      7424      7424      7427      7428
      7424      7427      7429      7424      7427      7430      7425      7424      7426
      7425      7424      7427      7426      7424      7427      7427      7430      7431
      7427      7430      7432      7427      7430      7433      7428      7427      7429
      7428      7427      7430      7429      7427      7430      7430      7433      7434
      7430      7433      7435      7431      7430      7432      7431      7430      7433
      7432      7430      7433      7433      7435      7436      7433      7435      7437
      7434      7433      7435      7435      7437      7438      7435      7437      7439
      7435      7437      7440      7436      7435      7437      7437      7440      7441
      7437      7440      7442      7437      7440      7443      7438      7437      7439
      7438      7437      7440      7439      7437      7440      7440      7443      7444
      7440      7443      7445      7440      7443      7446      7441      7440      7442
      7441      7440      7443      7442      7440      7443      7443      7446      7447
      7443      7446      7448      7443      7446      7449      7444      7443      7445
      7444      7443      7446      7445      7443      7446      7446      7449      7450
      7446      7449      7451      7446      7449      7452      7447      7446      7448
      7447      7446      7449      7448      7446      7449      7449      7452      7453
      7449      7452      7454      7449      7452      7455      7450      7449      7451
      7450      7449      7452      7451      7449      7452      7452      7455      7456
      7452      7455      7457      7452      7455      7458      7453      7452      7454
      7453      7452      7455      7454      7452      7455      7455      7458      7459
      7455      7458      7460      7455      7458      7461      7456      7455      7457
      7456      7455      7458      7457      7455      7458      7459      7458      7460
      7459      7458      7461      7460      7458      7461      7462      7465      7466
      7462      7465      7467      7462      7465      7468      7463      7462      7464
      7463      7462      7465      7464      7462      7465      7465      7468      7469
      7465      7468      7470      7465      7468      7471      7466      7465      7467
      7466      7465      7468      7467      7465      7468      7468      7471      7472
      7468      7471      7473      7468      7471      7474      7469      7468      7470
      7469      7468      7471      7470      7468      7471      7471      7474      7475
      7471      7474      7476      7471      7474      7477      7472      7471      7473
      7472      7471      7474      7473      7471      7474      7474      7477      7478
      7474      7477      7479      7474      7477      7480      7475      7474      7476
      7475      7474      7477      7476      7474      7477      7477      7480      7481
      7477      7480      7482      7477      7480      7483      7478      7477      7479
      7478      7477      7480      7479      7477      7480      7480      7483      7484
      7480      7483      7485      7480      7483      7486      7481      7480      7482
      7481      7480      7483      7482      7480      7483      7483      7486      7487
      7483      7486      7488      7483      7486      7489      7484      7483      7485
      7484      7483      7486      7485      7483      7486      7486      7489      7490
      7486      7489      7491      7486      7489      7492      7487      7486      7488
      7487      7486      7489      7488      7486      7489      7489      7492      7493
      7489      7492      7494      7489      7492      7495      7490      7489      7491
      7490      7489      7492      7491      7489      7492      7492      7495      7496
      7492      7495      7497      7492      7495      7498      7493      7492      7494
      7493      7492      7495      7494      7492      7495      7495      7498      7499
      7495      7498      7500      7495      7498      7501      7496      7495      7497
      7496      7495      7498      7497      7495      7498      7498      7501      7502
      7498      7501      7503      7498      7501      7504      7499      7498      7500
      7499      7498      7501      7500      7498      7501      7502      7501      7503
      7502      7501      7504      7503      7501      7504      7505      7506      7507
      7505      7506      7508      7505      7506      7521      7505      7509      7510
      7505      7509      7511      7505      7509      7512      7505      7513      7514
      7505      7513      7515      7505      7513      7516      7505      7517      7518
      7505      7517      7519      7505      7517      7520      7506      7505      7509
      7506      7505      7513      7506      7505      7517      7506      7521      7522
      7506      7521      7523      7506      7521      7527      7507      7506      7508
      7507      7506      7521      7508      7506      7521      7509      7505      7513
      7509      7505      7517      7510      7509      7511      7510      7509      7512
      7511      7509      7512      7513      7505      7517      7514      7513      7515
      7514      7513      7516      7515      7513      7516      7518      7517      7519
      7518      7517      7520      7519      7517      7520      7521      7527      7524
      7522      7521      7523      7522      7521      7527      7523      7521      7527
      7524      7528      7529      7525      7524      7526      7525      7524      7527
      7525      7524      7528      7526      7524      7527      7526      7524      7528
      7527      7524      7528      7528      7529      7530      7528      7529      7531
      7528      7529      7532      7529      7532      7533      7529      7532      7534
      7529      7532      7540      7530      7529      7531      7530      7529      7532
      7531      7529      7532      7532      7534      7535      7532      7540      7541
      7532      7540      7542      7532      7540      7543      7533      7532      7534
      7533      7532      7540      7534      7532      7540      7534      7535      7536
      7534      7535      7537      7535      7537      7538      7535      7537      7539
      7535      7537      7549      7536      7535      7537      7537      7549      7550
      7537      7549      7551      7537      7549      7552      7538      7537      7539
      7538      7537      7549      7539      7537      7549      7540      7543      7544
      7541      7540      7542      7541      7540      7543      7542      7540      7543
      7543      7544      7545      7543      7544      7546      7544      7546      7547
      7544      7546      7548      7544      7546      7596      7545      7544      7546
      7546      7596      7597      7546      7596      7598      7546      7596      7599
      7547      7546      7548      7547      7546      7596      7548      7546      7596
      7549      7552      7553      7549      7552      7554      7549      7552      7555
      7550      7549      7551      7550      7549      7552      7551      7549      7552
      7552      7555      7556      7552      7555      7557      7552      7555      7558
      7553      7552      7554      7553      7552      7555      7554      7552      7555
      7555      7558      7559      7555      7558      7560      7555      7558      7561
      7556      7555      7557      7556      7555      7558      7557      7555      7558
      7558      7561      7562      7558      7561      7563      7558      7561      7564
      7559      7558      7560      7559      7558      7561      7560      7558      7561
      7561      7564      7565      7561      7564      7566      7561      7564      7567
      7562      7561      7563      7562      7561      7564      7563      7561      7564
      7564      7567      7568      7564      7567      7569      7565      7564      7566
      7565      7564      7567      7566      7564      7567      7567      7569      7570
      7567      7569      7571      7568      7567      7569      7569      7571      7572
      7569      7571      7573      7569      7571      7574      7570      7569      7571
      7571      7574      7575      7571      7574      7576      7571      7574      7577
      7572      7571      7573      7572      7571      7574      7573      7571      7574
      7574      7577      7578      7574      7577      7579      7574      7577      7580
      7575      7574      7576      7575      7574      7577      7576      7574      7577
      7577      7580      7581      7577      7580      7582      7577      7580      7583
      7578      7577      7579      7578      7577      7580      7579      7577      7580
      7580      7583      7584      7580      7583      7585      7580      7583      7586
      7581      7580      7582      7581      7580      7583      7582      7580      7583
      7583      7586      7587      7583      7586      7588      7583      7586      7589
      7584      7583      7585      7584      7583      7586      7585      7583      7586
      7586      7589      7590      7586      7589      7591      7586      7589      7592
      7587      7586      7588      7587      7586      7589      7588      7586      7589
      7589      7592      7593      7589      7592      7594      7589      7592      7595
      7590      7589      7591      7590      7589      7592      7591      7589      7592
      7593      7592      7594      7593      7592      7595      7594      7592      7595
      7596      7599      7600      7596      7599      7601      7596      7599      7602
      7597      7596      7598      7597      7596      7599      7598      7596      7599
      7599      7602      7603      7599      7602      7604      7599      7602      7605
      7600      7599      7601      7600      7599      7602      7601      7599      7602
      7602      7605      7606      7602      7605      7607      7602      7605      7608
      7603      7602      7604      7603      7602      7605      7604      7602      7605
      7605      7608      7609      7605      7608      7610      7605      7608      7611
      7606      7605      7607      7606      7605      7608      7607      7605      7608
      7608      7611      7612      7608      7611      7613      7608      7611      7614
      7609      7608      7610      7609      7608      7611      7610      7608      7611
      7611      7614      7615      7611      7614      7616      7611      7614      7617
      7612      7611      7613      7612      7611      7614      7613      7611      7614
      7614      7617      7618      7614      7617      7619      7614      7617      7620
      7615      7614      7616      7615      7614      7617      7616      7614      7617
      7617      7620      7621      7617      7620      7622      7617      7620      7623
      7618      7617      7619      7618      7617      7620      7619      7617      7620
      7620      7623      7624      7620      7623      7625      7620      7623      7626
      7621      7620      7622      7621      7620      7623      7622      7620      7623
      7623      7626      7627      7623      7626      7628      7623      7626      7629
      7624      7623      7625      7624      7623      7626      7625      7623      7626
      7626      7629      7630      7626      7629      7631      7626      7629      7632
      7627      7626      7628      7627      7626      7629      7628      7626      7629
      7629      7632      7633      7629      7632      7634      7629      7632      7635
      7630      7629      7631      7630      7629      7632      7631      7629      7632
      7632      7635      7636      7632      7635      7637      7632      7635      7638
      7633      7632      7634      7633      7632      7635      7634      7632      7635
      7636      7635      7637      7636      7635      7638      7637      7635      7638
      7639      7640      7641      7639      7640      7642      7639      7640      7655
      7639      7643      7644      7639      7643      7645      7639      7643      7646
      7639      7647      7648      7639      7647      7649      7639      7647      7650
      7639      7651      7652      7639      7651      7653      7639      7651      7654
      7640      7639      7643      7640      7639      7647      7640      7639      7651
      7640      7655      7656      7640      7655      7657      7640      7655      7661
      7641      7640      7642      7641      7640      7655      7642      7640      7655
      7643      7639      7647      7643      7639      7651      7644      7643      7645
      7644      7643      7646      7645      7643      7646      7647      7639      7651
      7648      7647      7649      7648      7647      7650      7649      7647      7650
      7652      7651      7653      7652      7651      7654      7653      7651      7654
      7655      7661      7658      7656      7655      7657      7656      7655      7661
      7657      7655      7661      7658      7662      7663      7659      7658      7660
      7659      7658      7661      7659      7658      7662      7660      7658      7661
      7660      7658      7662      7661      7658      7662      7662      7663      7664
      7662      7663      7665      7662      7663      7666      7663      7666      7667
      7663      7666      7668      7663      7666      7674      7664      7663      7665
      7664      7663      7666      7665      7663      7666      7666      7668      7669
      7666      7674      7675      7666      7674      7676      7666      7674      7677
      7667      7666      7668      7667      7666      7674      7668      7666      7674
      7668      7669      7670      7668      7669      7671      7669      7671      7672
      7669      7671      7673      7669      7671      7683      7670      7669      7671
      7671      7683      7684      7671      7683      7685      7671      7683      7686
      7672      7671      7673      7672      7671      7683      7673      7671      7683
      7674      7677      7678      7675      7674      7676      7675      7674      7677
      7676      7674      7677      7677      7678      7679      7677      7678      7680
      7678      7680      7681      7678      7680      7682      7678      7680      7730
      7679      7678      7680      7680      7730      7731      7680      7730      7732
      7680      7730      7733      7681      7680      7682      7681      7680      7730
      7682      7680      7730      7683      7686      7687      7683      7686      7688
      7683      7686      7689      7684      7683      7685      7684      7683      7686
      7685      7683      7686      7686      7689      7690      7686      7689      7691
      7686      7689      7692      7687      7686      7688      7687      7686      7689
      7688      7686      7689      7689      7692      7693      7689      7692      7694
      7689      7692      7695      7690      7689      7691      7690      7689      7692
      7691      7689      7692      7692      7695      7696      7692      7695      7697
      7692      7695      7698      7693      7692      7694      7693      7692      7695
      7694      7692      7695      7695      7698      7699      7695      7698      7700
      7695      7698      7701      7696      7695      7697      7696      7695      7698
      7697      7695      7698      7698      7701      7702      7698      7701      7703
      7699      7698      7700      7699      7698      7701      7700      7698      7701
      7701      7703      7704      7701      7703      7705      7702      7701      7703
      7703      7705      7706      7703      7705      7707      7703      7705      7708
      7704      7703      7705      7705      7708      7709      7705      7708      7710
      7705      7708      7711      7706      7705      7707      7706      7705      7708
      7707      7705      7708      7708      7711      7712      7708      7711      7713
      7708      7711      7714      7709      7708      7710      7709      7708      7711
      7710      7708      7711      7711      7714      7715      7711      7714      7716
      7711      7714      7717      7712      7711      7713      7712      7711      7714
      7713      7711      7714      7714      7717      7718      7714      7717      7719
      7714      7717      7720      7715      7714      7716      7715      7714      7717
      7716      7714      7717      7717      7720      7721      7717      7720      7722
      7717      7720      7723      7718      7717      7719      7718      7717      7720
      7719      7717      7720      7720      7723      7724      7720      7723      7725
      7720      7723      7726      7721      7720      7722      7721      7720      7723
      7722      7720      7723      7723      7726      7727      7723      7726      7728
      7723      7726      7729      7724      7723      7725      7724      7723      7726
      7725      7723      7726      7727      7726      7728      7727      7726      7729
      7728      7726      7729      7730      7733      7734      7730      7733      7735
      7730      7733      7736      7731      7730      7732      7731      7730      7733
      7732      7730      7733      7733      7736      7737      7733      7736      7738
      7733      7736      7739      7734      7733      7735      7734      7733      7736
      7735      7733      7736      7736      7739      7740      7736      7739      7741
      7736      7739      7742      7737      7736      7738      7737      7736      7739
      7738      7736      7739      7739      7742      7743      7739      7742      7744
      7739      7742      7745      7740      7739      7741      7740      7739      7742
      7741      7739      7742      7742      7745      7746      7742      7745      7747
      7742      7745      7748      7743      7742      7744      7743      7742      7745
      7744      7742      7745      7745      7748      7749      7745      7748      7750
      7745      7748      7751      7746      7745      7747      7746      7745      7748
      7747      7745      7748      7748      7751      7752      7748      7751      7753
      7748      7751      7754      7749      7748      7750      7749      7748      7751
      7750      7748      7751      7751      7754      7755      7751      7754      7756
      7751      7754      7757      7752      7751      7753      7752      7751      7754
      7753      7751      7754      7754      7757      7758      7754      7757      7759
      7754      7757      7760      7755      7754      7756      7755      7754      7757
      7756      7754      7757      7757      7760      7761      7757      7760      7762
      7757      7760      7763      7758      7757      7759      7758      7757      7760
      7759      7757      7760      7760      7763      7764      7760      7763      7765
      7760      7763      7766      7761      7760      7762      7761      7760      7763
      7762      7760      7763      7763      7766      7767      7763      7766      7768
      7763      7766      7769      7764      7763      7765      7764      7763      7766
      7765      7763      7766      7766      7769      7770      7766      7769      7771
      7766      7769      7772      7767      7766      7768      7767      7766      7769
      7768      7766      7769      7770      7769      7771      7770      7769      7772
      7771      7769      7772      7773      7774      7775      7773      7774      7776
      7773      7774      7789      7773      7777      7778      7773      7777      7779
      7773      7777      7780      7773      7781      7782      7773      7781      7783
      7773      7781      7784      7773      7785      7786      7773      7785      7787
      7773      7785      7788      7774      7773      7777      7774      7773      7781
      7774      7773      7785      7774      7789      7790      7774      7789      7791
      7774      7789      7795      7775      7774      7776      7775      7774      7789
      7776      7774      7789      7777      7773      7781      7777      7773      7785
      7778      7777      7779      7778      7777      7780      7779      7777      7780
      7781      7773      7785      7782      7781      7783      7782      7781      7784
      7783      7781      7784      7786      7785      7787      7786      7785      7788
      7787      7785      7788      7789      7795      7792      7790      7789      7791
      7790      7789      7795      7791      7789      7795      7792      7796      7797
      7793      7792      7794      7793      7792      7795      7793      7792      7796
      7794      7792      7795      7794      7792      7796      7795      7792      7796
      7796      7797      7798      7796      7797      7799      7796      7797      7800
      7797      7800      7801      7797      7800      7802      7797      7800      7808
      7798      7797      7799      7798      7797      7800      7799      7797      7800
      7800      7802      7803      7800      7808      7809      7800      7808      7810
      7800      7808      7811      7801      7800      7802      7801      7800      7808
      7802      7800      7808      7802      7803      7804      7802      7803      7805
      7803      7805      7806      7803      7805      7807      7803      7805      7817
      7804      7803      7805      7805      7817      7818      7805      7817      7819
      7805      7817      7820      7806      7805      7807      7806      7805      7817
      7807      7805      7817      7808      7811      7812      7809      7808      7810
      7809      7808      7811      7810      7808      7811      7811      7812      7813
      7811      7812      7814      7812      7814      7815      7812      7814      7816
      7812      7814      7864      7813      7812      7814      7814      7864      7865
      7814      7864      7866      7814      7864      7867      7815      7814      7816
      7815      7814      7864      7816      7814      7864      7817      7820      7821
      7817      7820      7822      7817      7820      7823      7818      7817      7819
      7818      7817      7820      7819      7817      7820      7820      7823      7824
      7820      7823      7825      7820      7823      7826      7821      7820      7822
      7821      7820      7823      7822      7820      7823      7823      7826      7827
      7823      7826      7828      7823      7826      7829      7824      7823      7825
      7824      7823      7826      7825      7823      7826      7826      7829      7830
      7826      7829      7831      7826      7829      7832      7827      7826      7828
      7827      7826      7829      7828      7826      7829      7829      7832      7833
      7829      7832      7834      7829      7832      7835      7830      7829      7831
      7830      7829      7832      7831      7829      7832      7832      7835      7836
      7832      7835      7837      7833      7832      7834      7833      7832      7835
      7834      7832      7835      7835      7837      7838      7835      7837      7839
      7836      7835      7837      7837      7839      7840      7837      7839      7841
      7837      7839      7842      7838      7837      7839      7839      7842      7843
      7839      7842      7844      7839      7842      7845      7840      7839      7841
      7840      7839      7842      7841      7839      7842      7842      7845      7846
      7842      7845      7847      7842      7845      7848      7843      7842      7844
      7843      7842      7845      7844      7842      7845      7845      7848      7849
      7845      7848      7850      7845      7848      7851      7846      7845      7847
      7846      7845      7848      7847      7845      7848      7848      7851      7852
      7848      7851      7853      7848      7851      7854      7849      7848      7850
      7849      7848      7851      7850      7848      7851      7851      7854      7855
      7851      7854      7856      7851      7854      7857      7852      7851      7853
      7852      7851      7854      7853      7851      7854      7854      7857      7858
      7854      7857      7859      7854      7857      7860      7855      7854      7856
      7855      7854      7857      7856      7854      7857      7857      7860      7861
      7857      7860      7862      7857      7860      7863      7858      7857      7859
      7858      7857      7860      7859      7857      7860      7861      7860      7862
      7861      7860      7863      7862      7860      7863      7864      7867      7868
      7864      7867      7869      7864      7867      7870      7865      7864      7866
      7865      7864      7867      7866      7864      7867      7867      7870      7871
      7867      7870      7872      7867      7870      7873      7868      7867      7869
      7868      7867      7870      7869      7867      7870      7870      7873      7874
      7870      7873      7875      7870      7873      7876      7871      7870      7872
      7871      7870      7873      7872      7870      7873      7873      7876      7877
      7873      7876      7878      7873      7876      7879      7874      7873      7875
      7874      7873      7876      7875      7873      7876      7876      7879      7880
      7876      7879      7881      7876      7879      7882      7877      7876      7878
      7877      7876      7879      7878      7876      7879      7879      7882      7883
      7879      7882      7884      7879      7882      7885      7880      7879      7881
      7880      7879      7882      7881      7879      7882      7882      7885      7886
      7882      7885      7887      7882      7885      7888      7883      7882      7884
      7883      7882      7885      7884      7882      7885      7885      7888      7889
      7885      7888      7890      7885      7888      7891      7886      7885      7887
      7886      7885      7888      7887      7885      7888      7888      7891      7892
      7888      7891      7893      7888      7891      7894      7889      7888      7890
      7889      7888      7891      7890      7888      7891      7891      7894      7895
      7891      7894      7896      7891      7894      7897      7892      7891      7893
      7892      7891      7894      7893      7891      7894      7894      7897      7898
      7894      7897      7899      7894      7897      7900      7895      7894      7896
      7895      7894      7897      7896      7894      7897      7897      7900      7901
      7897      7900      7902      7897      7900      7903      7898      7897      7899
      7898      7897      7900      7899      7897      7900      7900      7903      7904
      7900      7903      7905      7900      7903      7906      7901      7900      7902
      7901      7900      7903      7902      7900      7903      7904      7903      7905
      7904      7903      7906      7905      7903      7906      7907      7908      7909
      7907      7908      7910      7907      7908      7923      7907      7911      7912
      7907      7911      7913      7907      7911      7914      7907      7915      7916
      7907      7915      7917      7907      7915      7918      7907      7919      7920
      7907      7919      7921      7907      7919      7922      7908      7907      7911
      7908      7907      7915      7908      7907      7919      7908      7923      7924
      7908      7923      7925      7908      7923      7929      7909      7908      7910
      7909      7908      7923      7910      7908      7923      7911      7907      7915
      7911      7907      7919      7912      7911      7913      7912      7911      7914
      7913      7911      7914      7915      7907      7919      7916      7915      7917
      7916      7915      7918      7917      7915      7918      7920      7919      7921
      7920      7919      7922      7921      7919      7922      7923      7929      7926
      7924      7923      7925      7924      7923      7929      7925      7923      7929
      7926      7930      7931      7927      7926      7928      7927      7926      7929
      7927      7926      7930      7928      7926      7929      7928      7926      7930
      7929      7926      7930      7930      7931      7932      7930      7931      7933
      7930      7931      7934      7931      7934      7935      7931      7934      7936
      7931      7934      7942      7932      7931      7933      7932      7931      7934
      7933      7931      7934      7934      7936      7937      7934      7942      7943
      7934      7942      7944      7934      7942      7945      7935      7934      7936
      7935      7934      7942      7936      7934      7942      7936      7937      7938
      7936      7937      7939      7937      7939      7940      7937      7939      7941
      7937      7939      7951      7938      7937      7939      7939      7951      7952
      7939      7951      7953      7939      7951      7954      7940      7939      7941
      7940      7939      7951      7941      7939      7951      7942      7945      7946
      7943      7942      7944      7943      7942      7945      7944      7942      7945
      7945      7946      7947      7945      7946      7948      7946      7948      7949
      7946      7948      7950      7946      7948      7998      7947      7946      7948
      7948      7998      7999      7948      7998      8000      7948      7998      8001
      7949      7948      7950      7949      7948      7998      7950      7948      7998
      7951      7954      7955      7951      7954      7956      7951      7954      7957
      7952      7951      7953      7952      7951      7954      7953      7951      7954
      7954      7957      7958      7954      7957      7959      7954      7957      7960
      7955      7954      7956      7955      7954      7957      7956      7954      7957
      7957      7960      7961      7957      7960      7962      7957      7960      7963
      7958      7957      7959      7958      7957      7960      7959      7957      7960
      7960      7963      7964      7960      7963      7965      7960      7963      7966
      7961      7960      7962      7961      7960      7963      7962      7960      7963
      7963      7966      7967      7963      7966      7968      7963      7966      7969
      7964      7963      7965      7964      7963      7966      7965      7963      7966
      7966      7969      7970      7966      7969      7971      7967      7966      7968
      7967      7966      7969      7968      7966      7969      7969      7971      7972
      7969      7971      7973      7970      7969      7971      7971      7973      7974
      7971      7973      7975      7971      7973      7976      7972      7971      7973
      7973      7976      7977      7973      7976      7978      7973      7976      7979
      7974      7973      7975      7974      7973      7976      7975      7973      7976
      7976      7979      7980      7976      7979      7981      7976      7979      7982
      7977      7976      7978      7977      7976      7979      7978      7976      7979
      7979      7982      7983      7979      7982      7984      7979      7982      7985
      7980      7979      7981      7980      7979      7982      7981      7979      7982
      7982      7985      7986      7982      7985      7987      7982      7985      7988
      7983      7982      7984      7983      7982      7985      7984      7982      7985
      7985      7988      7989      7985      7988      7990      7985      7988      7991
      7986      7985      7987      7986      7985      7988      7987      7985      7988
      7988      7991      7992      7988      7991      7993      7988      7991      7994
      7989      7988      7990      7989      7988      7991      7990      7988      7991
      7991      7994      7995      7991      7994      7996      7991      7994      7997
      7992      7991      7993      7992      7991      7994      7993      7991      7994
      7995      7994      7996      7995      7994      7997      7996      7994      7997
      7998      8001      8002      7998      8001      8003      7998      8001      8004
      7999      7998      8000      7999      7998      8001      8000      7998      8001
      8001      8004      8005      8001      8004      8006      8001      8004      8007
      8002      8001      8003      8002      8001      8004      8003      8001      8004
      8004      8007      8008      8004      8007      8009      8004      8007      8010
      8005      8004      8006      8005      8004      8007      8006      8004      8007
      8007      8010      8011      8007      8010      8012      8007      8010      8013
      8008      8007      8009      8008      8007      8010      8009      8007      8010
      8010      8013      8014      8010      8013      8015      8010      8013      8016
      8011      8010      8012      8011      8010      8013      8012      8010      8013
      8013      8016      8017      8013      8016      8018      8013      8016      8019
      8014      8013      8015      8014      8013      8016      8015      8013      8016
      8016      8019      8020      8016      8019      8021      8016      8019      8022
      8017      8016      8018      8017      8016      8019      8018      8016      8019
      8019      8022      8023      8019      8022      8024      8019      8022      8025
      8020      8019      8021      8020      8019      8022      8021      8019      8022
      8022      8025      8026      8022      8025      8027      8022      8025      8028
      8023      8022      8024      8023      8022      8025      8024      8022      8025
      8025      8028      8029      8025      8028      8030      8025      8028      8031
      8026      8025      8027      8026      8025      8028      8027      8025      8028
      8028      8031      8032      8028      8031      8033      8028      8031      8034
      8029      8028      8030      8029      8028      8031      8030      8028      8031
      8031      8034      8035      8031      8034      8036      8031      8034      8037
      8032      8031      8033      8032      8031      8034      8033      8031      8034
      8034      8037      8038      8034      8037      8039      8034      8037      8040
      8035      8034      8036      8035      8034      8037      8036      8034      8037
      8038      8037      8039      8038      8037      8040      8039      8037      8040
      8041      8042      8043      8041      8042      8044      8041      8042      8057
      8041      8045      8046      8041      8045      8047      8041      8045      8048
      8041      8049      8050      8041      8049      8051      8041      8049      8052
      8041      8053      8054      8041      8053      8055      8041      8053      8056
      8042      8041      8045      8042      8041      8049      8042      8041      8053
      8042      8057      8058      8042      8057      8059      8042      8057      8063
      8043      8042      8044      8043      8042      8057      8044      8042      8057
      8045      8041      8049      8045      8041      8053      8046      8045      8047
      8046      8045      8048      8047      8045      8048      8049      8041      8053
      8050      8049      8051      8050      8049      8052      8051      8049      8052
      8054      8053      8055      8054      8053      8056      8055      8053      8056
      8057      8063      8060      8058      8057      8059      8058      8057      8063
      8059      8057      8063      8060      8064      8065      8061      8060      8062
      8061      8060      8063      8061      8060      8064      8062      8060      8063
      8062      8060      8064      8063      8060      8064      8064      8065      8066
      8064      8065      8067      8064      8065      8068      8065      8068      8069
      8065      8068      8070      8065      8068      8076      8066      8065      8067
      8066      8065      8068      8067      8065      8068      8068      8070      8071
      8068      8076      8077      8068      8076      8078      8068      8076      8079
      8069      8068      8070      8069      8068      8076      8070      8068      8076
      8070      8071      8072      8070      8071      8073      8071      8073      8074
      8071      8073      8075      8071      8073      8085      8072      8071      8073
      8073      8085      8086      8073      8085      8087      8073      8085      8088
      8074      8073      8075      8074      8073      8085      8075      8073      8085
      8076      8079      8080      8077      8076      8078      8077      8076      8079
      8078      8076      8079      8079      8080      8081      8079      8080      8082
      8080      8082      8083      8080      8082      8084      8080      8082      8132
      8081      8080      8082      8082      8132      8133      8082      8132      8134
      8082      8132      8135      8083      8082      8084      8083      8082      8132
      8084      8082      8132      8085      8088      8089      8085      8088      8090
      8085      8088      8091      8086      8085      8087      8086      8085      8088
      8087      8085      8088      8088      8091      8092      8088      8091      8093
      8088      8091      8094      8089      8088      8090      8089      8088      8091
      8090      8088      8091      8091      8094      8095      8091      8094      8096
      8091      8094      8097      8092      8091      8093      8092      8091      8094
      8093      8091      8094      8094      8097      8098      8094      8097      8099
      8094      8097      8100      8095      8094      8096      8095      8094      8097
      8096      8094      8097      8097      8100      8101      8097      8100      8102
      8097      8100      8103      8098      8097      8099      8098      8097      8100
      8099      8097      8100      8100      8103      8104      8100      8103      8105
      8101      8100      8102      8101      8100      8103      8102      8100      8103
      8103      8105      8106      8103      8105      8107      8104      8103      8105
      8105      8107      8108      8105      8107      8109      8105      8107      8110
      8106      8105      8107      8107      8110      8111      8107      8110      8112
      8107      8110      8113      8108      8107      8109      8108      8107      8110
      8109      8107      8110      8110      8113      8114      8110      8113      8115
      8110      8113      8116      8111      8110      8112      8111      8110      8113
      8112      8110      8113      8113      8116      8117      8113      8116      8118
      8113      8116      8119      8114      8113      8115      8114      8113      8116
      8115      8113      8116      8116      8119      8120      8116      8119      8121
      8116      8119      8122      8117      8116      8118      8117      8116      8119
      8118      8116      8119      8119      8122      8123      8119      8122      8124
      8119      8122      8125      8120      8119      8121      8120      8119      8122
      8121      8119      8122      8122      8125      8126      8122      8125      8127
      8122      8125      8128      8123      8122      8124      8123      8122      8125
      8124      8122      8125      8125      8128      8129      8125      8128      8130
      8125      8128      8131      8126      8125      8127      8126      8125      8128
      8127      8125      8128      8129      8128      8130      8129      8128      8131
      8130      8128      8131      8132      8135      8136      8132      8135      8137
      8132      8135      8138      8133      8132      8134      8133      8132      8135
      8134      8132      8135      8135      8138      8139      8135      8138      8140
      8135      8138      8141      8136      8135      8137      8136      8135      8138
      8137      8135      8138      8138      8141      8142      8138      8141      8143
      8138      8141      8144      8139      8138      8140      8139      8138      8141
      8140      8138      8141      8141      8144      8145      8141      8144      8146
      8141      8144      8147      8142      8141      8143      8142      8141      8144
      8143      8141      8144      8144      8147      8148      8144      8147      8149
      8144      8147      8150      8145      8144      8146      8145      8144      8147
      8146      8144      8147      8147      8150      8151      8147      8150      8152
      8147      8150      8153      8148      8147      8149      8148      8147      8150
      8149      8147      8150      8150      8153      8154      8150      8153      8155
      8150      8153      8156      8151      8150      8152      8151      8150      8153
      8152      8150      8153      8153      8156      8157      8153      8156      8158
      8153      8156      8159      8154      8153      8155      8154      8153      8156
      8155      8153      8156      8156      8159      8160      8156      8159      8161
      8156      8159      8162      8157      8156      8158      8157      8156      8159
      8158      8156      8159      8159      8162      8163      8159      8162      8164
      8159      8162      8165      8160      8159      8161      8160      8159      8162
      8161      8159      8162      8162      8165      8166      8162      8165      8167
      8162      8165      8168      8163      8162      8164      8163      8162      8165
      8164      8162      8165      8165      8168      8169      8165      8168      8170
      8165      8168      8171      8166      8165      8167      8166      8165      8168
      8167      8165      8168      8168      8171      8172      8168      8171      8173
      8168      8171      8174      8169      8168      8170      8169      8168      8171
      8170      8168      8171      8172      8171      8173      8172      8171      8174
      8173      8171      8174      8175      8176      8177      8175      8176      8178
      8175      8176      8191      8175      8179      8180      8175      8179      8181
      8175      8179      8182      8175      8183      8184      8175      8183      8185
      8175      8183      8186      8175      8187      8188      8175      8187      8189
      8175      8187      8190      8176      8175      8179      8176      8175      8183
      8176      8175      8187      8176      8191      8192      8176      8191      8193
      8176      8191      8197      8177      8176      8178      8177      8176      8191
      8178      8176      8191      8179      8175      8183      8179      8175      8187
      8180      8179      8181      8180      8179      8182      8181      8179      8182
      8183      8175      8187      8184      8183      8185      8184      8183      8186
      8185      8183      8186      8188      8187      8189      8188      8187      8190
      8189      8187      8190      8191      8197      8194      8192      8191      8193
      8192      8191      8197      8193      8191      8197      8194      8198      8199
      8195      8194      8196      8195      8194      8197      8195      8194      8198
      8196      8194      8197      8196      8194      8198      8197      8194      8198
      8198      8199      8200      8198      8199      8201      8198      8199      8202
      8199      8202      8203      8199      8202      8204      8199      8202      8210
      8200      8199      8201      8200      8199      8202      8201      8199      8202
      8202      8204      8205      8202      8210      8211      8202      8210      8212
      8202      8210      8213      8203      8202      8204      8203      8202      8210
      8204      8202      8210      8204      8205      8206      8204      8205      8207
      8205      8207      8208      8205      8207      8209      8205      8207      8219
      8206      8205      8207      8207      8219      8220      8207      8219      8221
      8207      8219      8222      8208      8207      8209      8208      8207      8219
      8209      8207      8219      8210      8213      8214      8211      8210      8212
      8211      8210      8213      8212      8210      8213      8213      8214      8215
      8213      8214      8216      8214      8216      8217      8214      8216      8218
      8214      8216      8266      8215      8214      8216      8216      8266      8267
      8216      8266      8268      8216      8266      8269      8217      8216      8218
      8217      8216      8266      8218      8216      8266      8219      8222      8223
      8219      8222      8224      8219      8222      8225      8220      8219      8221
      8220      8219      8222      8221      8219      8222      8222      8225      8226
      8222      8225      8227      8222      8225      8228      8223      8222      8224
      8223      8222      8225      8224      8222      8225      8225      8228      8229
      8225      8228      8230      8225      8228      8231      8226      8225      8227
      8226      8225      8228      8227      8225      8228      8228      8231      8232
      8228      8231      8233      8228      8231      8234      8229      8228      8230
      8229      8228      8231      8230      8228      8231      8231      8234      8235
      8231      8234      8236      8231      8234      8237      8232      8231      8233
      8232      8231      8234      8233      8231      8234      8234      8237      8238
      8234      8237      8239      8235      8234      8236      8235      8234      8237
      8236      8234      8237      8237      8239      8240      8237      8239      8241
      8238      8237      8239      8239      8241      8242      8239      8241      8243
      8239      8241      8244      8240      8239      8241      8241      8244      8245
      8241      8244      8246      8241      8244      8247      8242      8241      8243
      8242      8241      8244      8243      8241      8244      8244      8247      8248
      8244      8247      8249      8244      8247      8250      8245      8244      8246
      8245      8244      8247      8246      8244      8247      8247      8250      8251
      8247      8250      8252      8247      8250      8253      8248      8247      8249
      8248      8247      8250      8249      8247      8250      8250      8253      8254
      8250      8253      8255      8250      8253      8256      8251      8250      8252
      8251      8250      8253      8252      8250      8253      8253      8256      8257
      8253      8256      8258      8253      8256      8259      8254      8253      8255
      8254      8253      8256      8255      8253      8256      8256      8259      8260
      8256      8259      8261      8256      8259      8262      8257      8256      8258
      8257      8256      8259      8258      8256      8259      8259      8262      8263
      8259      8262      8264      8259      8262      8265      8260      8259      8261
      8260      8259      8262      8261      8259      8262      8263      8262      8264
      8263      8262      8265      8264      8262      8265      8266      8269      8270
      8266      8269      8271      8266      8269      8272      8267      8266      8268
      8267      8266      8269      8268      8266      8269      8269      8272      8273
      8269      8272      8274      8269      8272      8275      8270      8269      8271
      8270      8269      8272      8271      8269      8272      8272      8275      8276
      8272      8275      8277      8272      8275      8278      8273      8272      8274
      8273      8272      8275      8274      8272      8275      8275      8278      8279
      8275      8278      8280      8275      8278      8281      8276      8275      8277
      8276      8275      8278      8277      8275      8278      8278      8281      8282
      8278      8281      8283      8278      8281      8284      8279      8278      8280
      8279      8278      8281      8280      8278      8281      8281      8284      8285
      8281      8284      8286      8281      8284      8287      8282      8281      8283
      8282      8281      8284      8283      8281      8284      8284      8287      8288
      8284      8287      8289      8284      8287      8290      8285      8284      8286
      8285      8284      8287      8286      8284      8287      8287      8290      8291
      8287      8290      8292      8287      8290      8293      8288      8287      8289
      8288      8287      8290      8289      8287      8290      8290      8293      8294
      8290      8293      8295      8290      8293      8296      8291      8290      8292
      8291      8290      8293      8292      8290      8293      8293      8296      8297
      8293      8296      8298      8293      8296      8299      8294      8293      8295
      8294      8293      8296      8295      8293      8296      8296      8299      8300
      8296      8299      8301      8296      8299      8302      8297      8296      8298
      8297      8296      8299      8298      8296      8299      8299      8302      8303
      8299      8302      8304      8299      8302      8305      8300      8299      8301
      8300      8299      8302      8301      8299      8302      8302      8305      8306
      8302      8305      8307      8302      8305      8308      8303      8302      8304
      8303      8302      8305      8304      8302      8305      8306      8305      8307
      8306      8305      8308      8307      8305      8308      8309      8310      8311
      8309      8310      8312      8309      8310      8325      8309      8313      8314
      8309      8313      8315      8309      8313      8316      8309      8317      8318
      8309      8317      8319      8309      8317      8320      8309      8321      8322
      8309      8321      8323      8309      8321      8324      8310      8309      8313
      8310      8309      8317      8310      8309      8321      8310      8325      8326
      8310      8325      8327      8310      8325      8331      8311      8310      8312
      8311      8310      8325      8312      8310      8325      8313      8309      8317
      8313      8309      8321      8314      8313      8315      8314      8313      8316
      8315      8313      8316      8317      8309      8321      8318      8317      8319
      8318      8317      8320      8319      8317      8320      8322      8321      8323
      8322      8321      8324      8323      8321      8324      8325      8331      8328
      8326      8325      8327      8326      8325      8331      8327      8325      8331
      8328      8332      8333      8329      8328      8330      8329      8328      8331
      8329      8328      8332      8330      8328      8331      8330      8328      8332
      8331      8328      8332      8332      8333      8334      8332      8333      8335
      8332      8333      8336      8333      8336      8337      8333      8336      8338
      8333      8336      8344      8334      8333      8335      8334      8333      8336
      8335      8333      8336      8336      8338      8339      8336      8344      8345
      8336      8344      8346      8336      8344      8347      8337      8336      8338
      8337      8336      8344      8338      8336      8344      8338      8339      8340
      8338      8339      8341      8339      8341      8342      8339      8341      8343
      8339      8341      8353      8340      8339      8341      8341      8353      8354
      8341      8353      8355      8341      8353      8356      8342      8341      8343
      8342      8341      8353      8343      8341      8353      8344      8347      8348
      8345      8344      8346      8345      8344      8347      8346      8344      8347
      8347      8348      8349      8347      8348      8350      8348      8350      8351
      8348      8350      8352      8348      8350      8400      8349      8348      8350
      8350      8400      8401      8350      8400      8402      8350      8400      8403
      8351      8350      8352      8351      8350      8400      8352      8350      8400
      8353      8356      8357      8353      8356      8358      8353      8356      8359
      8354      8353      8355      8354      8353      8356      8355      8353      8356
      8356      8359      8360      8356      8359      8361      8356      8359      8362
      8357      8356      8358      8357      8356      8359      8358      8356      8359
      8359      8362      8363      8359      8362      8364      8359      8362      8365
      8360      8359      8361      8360      8359      8362      8361      8359      8362
      8362      8365      8366      8362      8365      8367      8362      8365      8368
      8363      8362      8364      8363      8362      8365      8364      8362      8365
      8365      8368      8369      8365      8368      8370      8365      8368      8371
      8366      8365      8367      8366      8365      8368      8367      8365      8368
      8368      8371      8372      8368      8371      8373      8369      8368      8370
      8369      8368      8371      8370      8368      8371      8371      8373      8374
      8371      8373      8375      8372      8371      8373      8373      8375      8376
      8373      8375      8377      8373      8375      8378      8374      8373      8375
      8375      8378      8379      8375      8378      8380      8375      8378      8381
      8376      8375      8377      8376      8375      8378      8377      8375      8378
      8378      8381      8382      8378      8381      8383      8378      8381      8384
      8379      8378      8380      8379      8378      8381      8380      8378      8381
      8381      8384      8385      8381      8384      8386      8381      8384      8387
      8382      8381      8383      8382      8381      8384      8383      8381      8384
      8384      8387      8388      8384      8387      8389      8384      8387      8390
      8385      8384      8386      8385      8384      8387      8386      8384      8387
      8387      8390      8391      8387      8390      8392      8387      8390      8393
      8388      8387      8389      8388      8387      8390      8389      8387      8390
      8390      8393      8394      8390      8393      8395      8390      8393      8396
      8391      8390      8392      8391      8390      8393      8392      8390      8393
      8393      8396      8397      8393      8396      8398      8393      8396      8399
      8394      8393      8395      8394      8393      8396      8395      8393      8396
      8397      8396      8398      8397      8396      8399      8398      8396      8399
      8400      8403      8404      8400      8403      8405      8400      8403      8406
      8401      8400      8402      8401      8400      8403      8402      8400      8403
      8403      8406      8407      8403      8406      8408      8403      8406      8409
      8404      8403      8405      8404      8403      8406      8405      8403      8406
      8406      8409      8410      8406      8409      8411      8406      8409      8412
      8407      8406      8408      8407      8406      8409      8408      8406      8409
      8409      8412      8413      8409      8412      8414      8409      8412      8415
      8410      8409      8411      8410      8409      8412      8411      8409      8412
      8412      8415      8416      8412      8415      8417      8412      8415      8418
      8413      8412      8414      8413      8412      8415      8414      8412      8415
      8415      8418      8419      8415      8418      8420      8415      8418      8421
      8416      8415      8417      8416      8415      8418      8417      8415      8418
      8418      8421      8422      8418      8421      8423      8418      8421      8424
      8419      8418      8420      8419      8418      8421      8420      8418      8421
      8421      8424      8425      8421      8424      8426      8421      8424      8427
      8422      8421      8423      8422      8421      8424      8423      8421      8424
      8424      8427      8428      8424      8427      8429      8424      8427      8430
      8425      8424      8426      8425      8424      8427      8426      8424      8427
      8427      8430      8431      8427      8430      8432      8427      8430      8433
      8428      8427      8429      8428      8427      8430      8429      8427      8430
      8430      8433      8434      8430      8433      8435      8430      8433      8436
      8431      8430      8432      8431      8430      8433      8432      8430      8433
      8433      8436      8437      8433      8436      8438      8433      8436      8439
      8434      8433      8435      8434      8433      8436      8435      8433      8436
      8436      8439      8440      8436      8439      8441      8436      8439      8442
      8437      8436      8438      8437      8436      8439      8438      8436      8439
      8440      8439      8441      8440      8439      8442      8441      8439      8442
      8443      8444      8445      8443      8444      8446      8443      8444      8459
      8443      8447      8448      8443      8447      8449      8443      8447      8450
      8443      8451      8452      8443      8451      8453      8443      8451      8454
      8443      8455      8456      8443      8455      8457      8443      8455      8458
      8444      8443      8447      8444      8443      8451      8444      8443      8455
      8444      8459      8460      8444      8459      8461      8444      8459      8465
      8445      8444      8446      8445      8444      8459      8446      8444      8459
      8447      8443      8451      8447      8443      8455      8448      8447      8449
      8448      8447      8450      8449      8447      8450      8451      8443      8455
      8452      8451      8453      8452      8451      8454      8453      8451      8454
      8456      8455      8457      8456      8455      8458      8457      8455      8458
      8459      8465      8462      8460      8459      8461      8460      8459      8465
      8461      8459      8465      8462      8466      8467      8463      8462      8464
      8463      8462      8465      8463      8462      8466      8464      8462      8465
      8464      8462      8466      8465      8462      8466      8466      8467      8468
      8466      8467      8469      8466      8467      8470      8467      8470      8471
      8467      8470      8472      8467      8470      8478      8468      8467      8469
      8468      8467      8470      8469      8467      8470      8470      8472      8473
      8470      8478      8479      8470      8478      8480      8470      8478      8481
      8471      8470      8472      8471      8470      8478      8472      8470      8478
      8472      8473      8474      8472      8473      8475      8473      8475      8476
      8473      8475      8477      8473      8475      8487      8474      8473      8475
      8475      8487      8488      8475      8487      8489      8475      8487      8490
      8476      8475      8477      8476      8475      8487      8477      8475      8487
      8478      8481      8482      8479      8478      8480      8479      8478      8481
      8480      8478      8481      8481      8482      8483      8481      8482      8484
      8482      8484      8485      8482      8484      8486      8482      8484      8534
      8483      8482      8484      8484      8534      8535      8484      8534      8536
      8484      8534      8537      8485      8484      8486      8485      8484      8534
      8486      8484      8534      8487      8490      8491      8487      8490      8492
      8487      8490      8493      8488      8487      8489      8488      8487      8490
      8489      8487      8490      8490      8493      8494      8490      8493      8495
      8490      8493      8496      8491      8490      8492      8491      8490      8493
      8492      8490      8493      8493      8496      8497      8493      8496      8498
      8493      8496      8499      8494      8493      8495      8494      8493      8496
      8495      8493      8496      8496      8499      8500      8496      8499      8501
      8496      8499      8502      8497      8496      8498      8497      8496      8499
      8498      8496      8499      8499      8502      8503      8499      8502      8504
      8499      8502      8505      8500      8499      8501      8500      8499      8502
      8501      8499      8502      8502      8505      8506      8502      8505      8507
      8503      8502      8504      8503      8502      8505      8504      8502      8505
      8505      8507      8508      8505      8507      8509      8506      8505      8507
      8507      8509      8510      8507      8509      8511      8507      8509      8512
      8508      8507      8509      8509      8512      8513      8509      8512      8514
      8509      8512      8515      8510      8509      8511      8510      8509      8512
      8511      8509      8512      8512      8515      8516      8512      8515      8517
      8512      8515      8518      8513      8512      8514      8513      8512      8515
      8514      8512      8515      8515      8518      8519      8515      8518      8520
      8515      8518      8521      8516      8515      8517      8516      8515      8518
      8517      8515      8518      8518      8521      8522      8518      8521      8523
      8518      8521      8524      8519      8518      8520      8519      8518      8521
      8520      8518      8521      8521      8524      8525      8521      8524      8526
      8521      8524      8527      8522      8521      8523      8522      8521      8524
      8523      8521      8524      8524      8527      8528      8524      8527      8529
      8524      8527      8530      8525      8524      8526      8525      8524      8527
      8526      8524      8527      8527      8530      8531      8527      8530      8532
      8527      8530      8533      8528      8527      8529      8528      8527      8530
      8529      8527      8530      8531      8530      8532      8531      8530      8533
      8532      8530      8533      8534      8537      8538      8534      8537      8539
      8534      8537      8540      8535      8534      8536      8535      8534      8537
      8536      8534      8537      8537      8540      8541      8537      8540      8542
      8537      8540      8543      8538      8537      8539      8538      8537      8540
      8539      8537      8540      8540      8543      8544      8540      8543      8545
      8540      8543      8546      8541      8540      8542      8541      8540      8543
      8542      8540      8543      8543      8546      8547      8543      8546      8548
      8543      8546      8549      8544      8543      8545      8544      8543      8546
      8545      8543      8546      8546      8549      8550      8546      8549      8551
      8546      8549      8552      8547      8546      8548      8547      8546      8549
      8548      8546      8549      8549      8552      8553      8549      8552      8554
      8549      8552      8555      8550      8549      8551      8550      8549      8552
      8551      8549      8552      8552      8555      8556      8552      8555      8557
      8552      8555      8558      8553      8552      8554      8553      8552      8555
      8554      8552      8555      8555      8558      8559      8555      8558      8560
      8555      8558      8561      8556      8555      8557      8556      8555      8558
      8557      8555      8558      8558      8561      8562      8558      8561      8563
      8558      8561      8564      8559      8558      8560      8559      8558      8561
      8560      8558      8561      8561      8564      8565      8561      8564      8566
      8561      8564      8567      8562      8561      8563      8562      8561      8564
      8563      8561      8564      8564      8567      8568      8564      8567      8569
      8564      8567      8570      8565      8564      8566      8565      8564      8567
      8566      8564      8567      8567      8570      8571      8567      8570      8572
      8567      8570      8573      8568      8567      8569      8568      8567      8570
      8569      8567      8570      8570      8573      8574      8570      8573      8575
      8570      8573      8576      8571      8570      8572      8571      8570      8573
      8572      8570      8573      8574      8573      8575      8574      8573      8576
      8575      8573      8576

     22784 !NPHI: dihedrals
         1         2        17        18         1         2        17        19
         1         2        17        23         2         1         5         6
         2         1         5         7         2         1         5         8
         2         1         9        10         2         1         9        11
         2         1         9        12         2         1        13        14
         2         1        13        15         2         1        13        16
         2        17        23        20         3         2         1         5
         3         2         1         9         3         2         1        13
         3         2        17        18         3         2        17        19
         3         2        17        23         4         2         1         5
         4         2         1         9         4         2         1        13
         4         2        17        18         4         2        17        19
         4         2        17        23         5         1         2        17
         5         1         9        10         5         1         9        11
         5         1         9        12         5         1        13        14
         5         1        13        15         5         1        13        16
         6         5         1         9         6         5         1        13
         7         5         1         9         7         5         1        13
         8         5         1         9         8         5         1        13
         9         1         2        17         9         1        13        14
         9         1        13        15         9         1        13        16
        10         9         1        13        11         9         1        13
        12         9         1        13        13         1         2        17
        17        23        20        21        17        23        20        22
        17        23        20        24        18        17        23        20
        19        17        23        20        20        24        25        26
        20        24        25        27        20        24        25        28
        21        20        24        25        22        20        24        25
        23        20        24        25        24        25        28        29
        24        25        28        30        24        25        28        36
        25        28        30        31        25        28        36        37
        25        28        36        38        25        28        36        39
        26        25        28        29        26        25        28        30
        26        25        28        36        27        25        28        29
        27        25        28        30        27        25        28        36
        28        30        31        32        28        30        31        33
        28        36        39        40        29        28        30        31
        29        28        36        37        29        28        36        38
        29        28        36        39        30        28        36        37
        30        28        36        38        30        28        36        39
        30        31        33        34        30        31        33        35
        30        31        33        45        31        30        28        36
        31        33        45        46        31        33        45        47
        31        33        45        48        32        31        33        34
        32        31        33        35        32        31        33        45
        33        45        48        49        33        45        48        50
        33        45        48        51        34        33        45        46
        34        33        45        47        34        33        45        48
        35        33        45        46        35        33        45        47
        35        33        45        48        36        39        40        41
        36        39        40        42        37        36        39        40
        38        36        39        40        39        40        42        43
        39        40        42        44        39        40        42        92
        40        42        92        93        40        42        92        94
        40        42        92        95        41        40        42        43
        41        40        42        44        41        40        42        92
        42        92        95        96        42        92        95        97
        42        92        95        98        43        42        92        93
        43        42        92        94        43        42        92        95
        44        42        92        93        44        42        92        94
        44        42        92        95        45        48        51        52
        45        48        51        53        45        48        51        54
        46        45        48        49        46        45        48        50
        46        45        48        51        47        45        48        49
        47        45        48        50        47        45        48        51
        48        51        54        55        48        51        54        56
        48        51        54        57        49        48        51        52
        49        48        51        53        49        48        51        54
        50        48        51        52        50        48        51        53
        50        48        51        54        51        54        57        58
        51        54        57        59        51        54        57        60
        52        51        54        55        52        51        54        56
        52        51        54        57        53        51        54        55
        53        51        54        56        53        51        54        57
        54        57        60        61        54        57        60        62
        54        57        60        63        55        54        57        58
        55        54        57        59        55        54        57        60
        56        54        57        58        56        54        57        59
        56        54        57        60        57        60        63        64
        57        60        63        65        58        57        60        61
        58        57        60        62        58        57        60        63
        59        57        60        61        59        57        60        62
        59        57        60        63        60        63        65        66
        60        63        65        67        61        60        63        64
        61        60        63        65        62        60        63        64
        62        60        63        65        63        65        67        68
        63        65        67        69        63        65        67        70
        64        63        65        66        64        63        65        67
        65        67        70        71        65        67        70        72
        65        67        70        73        66        65        67        68
        66        65        67        69        66        65        67        70
        67        70        73        74        67        70        73        75
        67        70        73        76        68        67        70        71
        68        67        70        72        68        67        70        73
        69        67        70        71        69        67        70        72
        69        67        70        73        70        73        76        77
        70        73        76        78        70        73        76        79
        71        70        73        74        71        70        73        75
        71        70        73        76        72        70        73        74
        72        70        73        75        72        70        73        76
        73        76        79        80        73        76        79        81
        73        76        79        82        74        73        76        77
        74        73        76        78        74        73        76        79
        75        73        76        77        75        73        76        78
        75        73        76        79        76        79        82        83
        76        79        82        84        76        79        82        85
        77        76        79        80        77        76        79        81
        77        76        79        82        78        76        79        80
        78        76        79        81        78        76        79        82
        79        82        85        86        79        82        85        87
        79        82        85        88        80        79        82        83
        80        79        82        84        80        79        82        85
        81        79        82        83        81        79        82        84
        81        79        82        85        82        85        88        89
        82        85        88        90        82        85        88        91
        83        82        85        86        83        82        85        87
        83        82        85        88        84        82        85        86
        84        82        85        87        84        82        85        88
        86        85        88        89        86        85        88        90
        86        85        88        91        87        85        88        89
        87        85        88        90        87        85        88        91
        92        95        98        99        92        95        98       100
        92        95        98       101        93        92        95        96
        93        92        95        97        93        92        95        98
        94        92        95        96        94        92        95        97
        94        92        95        98        95        98       101       102
        95        98       101       103        95        98       101       104
        96        95        98        99        96        95        98       100
        96        95        98       101        97        95        98        99
        97        95        98       100        97        95        98       101
        98       101       104       105        98       101       104       106
        98       101       104       107        99        98       101       102
        99        98       101       103        99        98       101       104
       100        98       101       102       100        98       101       103
       100        98       101       104       101       104       107       108
       101       104       107       109       101       104       107       110
       102       101       104       105       102       101       104       106
       102       101       104       107       103       101       104       105
       103       101       104       106       103       101       104       107
       104       107       110       111       104       107       110       112
       104       107       110       113       105       104       107       108
       105       104       107       109       105       104       107       110
       106       104       107       108       106       104       107       109
       106       104       107       110       107       110       113       114
       107       110       113       115       107       110       113       116
       108       107       110       111       108       107       110       112
       108       107       110       113       109       107       110       111
       109       107       110       112       109       107       110       113
       110       113       116       117       110       113       116       118
       110       113       116       119       111       110       113       114
       111       110       113       115       111       110       113       116
       112       110       113       114       112       110       113       115
       112       110       113       116       113       116       119       120
       113       116       119       121       113       116       119       122
       114       113       116       117       114       113       116       118
       114       113       116       119       115       113       116       117
       115       113       116       118       115       113       116       119
       116       119       122       123       116       119       122       124
       116       119       122       125       117       116       119       120
       117       116       119       121       117       116       119       122
       118       116       119       120       118       116       119       121
       118       116       119       122       119       122       125       126
       119       122       125       127       119       122       125       128
       120       119       122       123       120       119       122       124
       120       119       122       125       121       119       122       123
       121       119       122       124       121       119       122       125
       122       125       128       129       122       125       128       130
       122       125       128       131       123       122       125       126
       123       122       125       127       123       122       125       128
       124       122       125       126       124       122       125       127
       124       122       125       128       125       128       131       132
       125       128       131       133       125       128       131       134
       126       125       128       129       126       125       128       130
       126       125       128       131       127       125       128       129
       127       125       128       130       127       125       128       131
       129       128       131       132       129       128       131       133
       129       128       131       134       130       128       131       132
       130       128       131       133       130       128       131       134
       135       136       151       152       135       136       151       153
       135       136       151       157       136       135       139       140
       136       135       139       141       136       135       139       142
       136       135       143       144       136       135       143       145
       136       135       143       146       136       135       147       148
       136       135       147       149       136       135       147       150
       136       151       157       154       137       136       135       139
       137       136       135       143       137       136       135       147
       137       136       151       152       137       136       151       153
       137       136       151       157       138       136       135       139
       138       136       135       143       138       136       135       147
       138       136       151       152       138       136       151       153
       138       136       151       157       139       135       136       151
       139       135       143       144       139       135       143       145
       139       135       143       146       139       135       147       148
       139       135       147       149       139       135       147       150
       140       139       135       143       140       139       135       147
       141       139       135       143       141       139       135       147
       142       139       135       143       142       139       135       147
       143       135       136       151       143       135       147       148
       143       135       147       149       143       135       147       150
       144       143       135       147       145       143       135       147
       146       143       135       147       147       135       136       151
       151       157       154       155       151       157       154       156
       151       157       154       158       152       151       157       154
       153       151       157       154       154       158       159       160
       154       158       159       161       154       158       159       162
       155       154       158       159       156       154       158       159
       157       154       158       159       158       159       162       163
       158       159       162       164       158       159       162       170
       159       162       164       165       159       162       170       171
       159       162       170       172       159       162       170       173
       160       159       162       163       160       159       162       164
       160       159       162       170       161       159       162       163
       161       159       162       164       161       159       162       170
       162       164       165       166       162       164       165       167
       162       170       173       174       163       162       164       165
       163       162       170       171       163       162       170       172
       163       162       170       173       164       162       170       171
       164       162       170       172       164       162       170       173
       164       165       167       168       164       165       167       169
       164       165       167       179       165       164       162       170
       165       167       179       180       165       167       179       181
       165       167       179       182       166       165       167       168
       166       165       167       169       166       165       167       179
       167       179       182       183       167       179       182       184
       167       179       182       185       168       167       179       180
       168       167       179       181       168       167       179       182
       169       167       179       180       169       167       179       181
       169       167       179       182       170       173       174       175
       170       173       174       176       171       170       173       174
       172       170       173       174       173       174       176       177
       173       174       176       178       173       174       176       226
       174       176       226       227       174       176       226       228
       174       176       226       229       175       174       176       177
       175       174       176       178       175       174       176       226
       176       226       229       230       176       226       229       231
       176       226       229       232       177       176       226       227
       177       176       226       228       177       176       226       229
       178       176       226       227       178       176       226       228
       178       176       226       229       179       182       185       186
       179       182       185       187       179       182       185       188
       180       179       182       183       180       179       182       184
       180       179       182       185       181       179       182       183
       181       179       182       184       181       179       182       185
       182       185       188       189       182       185       188       190
       182       185       188       191       183       182       185       186
       183       182       185       187       183       182       185       188
       184       182       185       186       184       182       185       187
       184       182       185       188       185       188       191       192
       185       188       191       193       185       188       191       194
       186       185       188       189       186       185       188       190
       186       185       188       191       187       185       188       189
       187       185       188       190       187       185       188       191
       188       191       194       195       188       191       194       196
       188       191       194       197       189       188       191       192
       189       188       191       193       189       188       191       194
       190       188       191       192       190       188       191       193
       190       188       191       194       191       194       197       198
       191       194       197       199       192       191       194       195
       192       191       194       196       192       191       194       197
       193       191       194       195       193       191       194       196
       193       191       194       197       194       197       199       200
       194       197       199       201       195       194       197       198
       195       194       197       199       196       194       197       198
       196       194       197       199       197       199       201       202
       197       199       201       203       197       199       201       204
       198       197       199       200       198       197       199       201
       199       201       204       205       199       201       204       206
       199       201       204       207       200       199       201       202
       200       199       201       203       200       199       201       204
       201       204       207       208       201       204       207       209
       201       204       207       210       202       201       204       205
       202       201       204       206       202       201       204       207
       203       201       204       205       203       201       204       206
       203       201       204       207       204       207       210       211
       204       207       210       212       204       207       210       213
       205       204       207       208       205       204       207       209
       205       204       207       210       206       204       207       208
       206       204       207       209       206       204       207       210
       207       210       213       214       207       210       213       215
       207       210       213       216       208       207       210       211
       208       207       210       212       208       207       210       213
       209       207       210       211       209       207       210       212
       209       207       210       213       210       213       216       217
       210       213       216       218       210       213       216       219
       211       210       213       214       211       210       213       215
       211       210       213       216       212       210       213       214
       212       210       213       215       212       210       213       216
       213       216       219       220       213       216       219       221
       213       216       219       222       214       213       216       217
       214       213       216       218       214       213       216       219
       215       213       216       217       215       213       216       218
       215       213       216       219       216       219       222       223
       216       219       222       224       216       219       222       225
       217       216       219       220       217       216       219       221
       217       216       219       222       218       216       219       220
       218       216       219       221       218       216       219       222
       220       219       222       223       220       219       222       224
       220       219       222       225       221       219       222       223
       221       219       222       224       221       219       222       225
       226       229       232       233       226       229       232       234
       226       229       232       235       227       226       229       230
       227       226       229       231       227       226       229       232
       228       226       229       230       228       226       229       231
       228       226       229       232       229       232       235       236
       229       232       235       237       229       232       235       238
       230       229       232       233       230       229       232       234
       230       229       232       235       231       229       232       233
       231       229       232       234       231       229       232       235
       232       235       238       239       232       235       238       240
       232       235       238       241       233       232       235       236
       233       232       235       237       233       232       235       238
       234       232       235       236       234       232       235       237
       234       232       235       238       235       238       241       242
       235       238       241       243       235       238       241       244
       236       235       238       239       236       235       238       240
       236       235       238       241       237       235       238       239
       237       235       238       240       237       235       238       241
       238       241       244       245       238       241       244       246
       238       241       244       247       239       238       241       242
       239       238       241       243       239       238       241       244
       240       238       241       242       240       238       241       243
       240       238       241       244       241       244       247       248
       241       244       247       249       241       244       247       250
       242       241       244       245       242       241       244       246
       242       241       244       247       243       241       244       245
       243       241       244       246       243       241       244       247
       244       247       250       251       244       247       250       252
       244       247       250       253       245       244       247       248
       245       244       247       249       245       244       247       250
       246       244       247       248       246       244       247       249
       246       244       247       250       247       250       253       254
       247       250       253       255       247       250       253       256
       248       247       250       251       248       247       250       252
       248       247       250       253       249       247       250       251
       249       247       250       252       249       247       250       253
       250       253       256       257       250       253       256       258
       250       253       256       259       251       250       253       254
       251       250       253       255       251       250       253       256
       252       250       253       254       252       250       253       255
       252       250       253       256       253       256       259       260
       253       256       259       261       253       256       259       262
       254       253       256       257       254       253       256       258
       254       253       256       259       255       253       256       257
       255       253       256       258       255       253       256       259
       256       259       262       263       256       259       262       264
       256       259       262       265       257       256       259       260
       257       256       259       261       257       256       259       262
       258       256       259       260       258       256       259       261
       258       256       259       262       259       262       265       266
       259       262       265       267       259       262       265       268
       260       259       262       263       260       259       262       264
       260       259       262       265       261       259       262       263
       261       259       262       264       261       259       262       265
       263       262       265       266       263       262       265       267
       263       262       265       268       264       262       265       266
       264       262       265       267       264       262       265       268
       269       270       285       286       269       270       285       287
       269       270       285       291       270       269       273       274
       270       269       273       275       270       269       273       276
       270       269       277       278       270       269       277       279
       270       269       277       280       270       269       281       282
       270       269       281       283       270       269       281       284
       270       285       291       288       271       270       269       273
       271       270       269       277       271       270       269       281
       271       270       285       286       271       270       285       287
       271       270       285       291       272       270       269       273
       272       270       269       277       272       270       269       281
       272       270       285       286       272       270       285       287
       272       270       285       291       273       269       270       285
       273       269       277       278       273       269       277       279
       273       269       277       280       273       269       281       282
       273       269       281       283       273       269       281       284
       274       273       269       277       274       273       269       281
       275       273       269       277       275       273       269       281
       276       273       269       277       276       273       269       281
       277       269       270       285       277       269       281       282
       277       269       281       283       277       269       281       284
       278       277       269       281       279       277       269       281
       280       277       269       281       281       269       270       285
       285       291       288       289       285       291       288       290
       285       291       288       292       286       285       291       288
       287       285       291       288       288       292       293       294
       288       292       293       295       288       292       293       296
       289       288       292       293       290       288       292       293
       291       288       292       293       292       293       296       297
       292       293       296       298       292       293       296       304
       293       296       298       299       293       296       304       305
       293       296       304       306       293       296       304       307
       294       293       296       297       294       293       296       298
       294       293       296       304       295       293       296       297
       295       293       296       298       295       293       296       304
       296       298       299       300       296       298       299       301
       296       304       307       308       297       296       298       299
       297       296       304       305       297       296       304       306
       297       296       304       307       298       296       304       305
       298       296       304       306       298       296       304       307
       298       299       301       302       298       299       301       303
       298       299       301       313       299       298       296       304
       299       301       313       314       299       301       313       315
       299       301       313       316       300       299       301       302
       300       299       301       303       300       299       301       313
       301       313       316       317       301       313       316       318
       301       313       316       319       302       301       313       314
       302       301       313       315       302       301       313       316
       303       301       313       314       303       301       313       315
       303       301       313       316       304       307       308       309
       304       307       308       310       305       304       307       308
       306       304       307       308       307       308       310       311
       307       308       310       312       307       308       310       360
       308       310       360       361       308       310       360       362
       308       310       360       363       309       308       310       311
       309       308       310       312       309       308       310       360
       310       360       363       364       310       360       363       365
       310       360       363       366       311       310       360       361
       311       310       360       362       311       310       360       363
       312       310       360       361       312       310       360       362
       312       310       360       363       313       316       319       320
       313       316       319       321       313       316       319       322
       314       313       316       317       314       313       316       318
       314       313       316       319       315       313       316       317
       315       313       316       318       315       313       316       319
       316       319       322       323       316       319       322       324
       316       319       322       325       317       316       319       320
       317       316       319       321       317       316       319       322
       318       316       319       320       318       316       319       321
       318       316       319       322       319       322       325       326
       319       322       325       327       319       322       325       328
       320       319       322       323       320       319       322       324
       320       319       322       325       321       319       322       323
       321       319       322       324       321       319       322       325
       322       325       328       329       322       325       328       330
       322       325       328       331       323       322       325       326
       323       322       325       327       323       322       325       328
       324       322       325       326       324       322       325       327
       324       322       325       328       325       328       331       332
       325       328       331       333       326       325       328       329
       326       325       328       330       326       325       328       331
       327       325       328       329       327       325       328       330
       327       325       328       331       328       331       333       334
       328       331       333       335       329       328       331       332
       329       328       331       333       330       328       331       332
       330       328       331       333       331       333       335       336
       331       333       335       337       331       333       335       338
       332       331       333       334       332       331       333       335
       333       335       338       339       333       335       338       340
       333       335       338       341       334       333       335       336
       334       333       335       337       334       333       335       338
       335       338       341       342       335       338       341       343
       335       338       341       344       336       335       338       339
       336       335       338       340       336       335       338       341
       337       335       338       339       337       335       338       340
       337       335       338       341       338       341       344       345
       338       341       344       346       338       341       344       347
       339       338       341       342       339       338       341       343
       339       338       341       344       340       338       341       342
       340       338       341       343       340       338       341       344
       341       344       347       348       341       344       347       349
       341       344       347       350       342       341       344       345
       342       341       344       346       342       341       344       347
       343       341       344       345       343       341       344       346
       343       341       344       347       344       347       350       351
       344       347       350       352       344       347       350       353
       345       344       347       348       345       344       347       349
       345       344       347       350       346       344       347       348
       346       344       347       349       346       344       347       350
       347       350       353       354       347       350       353       355
       347       350       353       356       348       347       350       351
       348       347       350       352       348       347       350       353
       349       347       350       351       349       347       350       352
       349       347       350       353       350       353       356       357
       350       353       356       358       350       353       356       359
       351       350       353       354       351       350       353       355
       351       350       353       356       352       350       353       354
       352       350       353       355       352       350       353       356
       354       353       356       357       354       353       356       358
       354       353       356       359       355       353       356       357
       355       353       356       358       355       353       356       359
       360       363       366       367       360       363       366       368
       360       363       366       369       361       360       363       364
       361       360       363       365       361       360       363       366
       362       360       363       364       362       360       363       365
       362       360       363       366       363       366       369       370
       363       366       369       371       363       366       369       372
       364       363       366       367       364       363       366       368
       364       363       366       369       365       363       366       367
       365       363       366       368       365       363       366       369
       366       369       372       373       366       369       372       374
       366       369       372       375       367       366       369       370
       367       366       369       371       367       366       369       372
       368       366       369       370       368       366       369       371
       368       366       369       372       369       372       375       376
       369       372       375       377       369       372       375       378
       370       369       372       373       370       369       372       374
       370       369       372       375       371       369       372       373
       371       369       372       374       371       369       372       375
       372       375       378       379       372       375       378       380
       372       375       378       381       373       372       375       376
       373       372       375       377       373       372       375       378
       374       372       375       376       374       372       375       377
       374       372       375       378       375       378       381       382
       375       378       381       383       375       378       381       384
       376       375       378       379       376       375       378       380
       376       375       378       381       377       375       378       379
       377       375       378       380       377       375       378       381
       378       381       384       385       378       381       384       386
       378       381       384       387       379       378       381       382
       379       378       381       383       379       378       381       384
       380       378       381       382       380       378       381       383
       380       378       381       384       381       384       387       388
       381       384       387       389       381       384       387       390
       382       381       384       385       382       381       384       386
       382       381       384       387       383       381       384       385
       383       381       384       386       383       381       384       387
       384       387       390       391       384       387       390       392
       384       387       390       393       385       384       387       388
       385       384       387       389       385       384       387       390
       386       384       387       388       386       384       387       389
       386       384       387       390       387       390       393       394
       387       390       393       395       387       390       393       396
       388       387       390       391       388       387       390       392
       388       387       390       393       389       387       390       391
       389       387       390       392       389       387       390       393
       390       393       396       397       390       393       396       398
       390       393       396       399       391       390       393       394
       391       390       393       395       391       390       393       396
       392       390       393       394       392       390       393       395
       392       390       393       396       393       396       399       400
       393       396       399       401       393       396       399       402
       394       393       396       397       394       393       396       398
       394       393       396       399       395       393       396       397
       395       393       396       398       395       393       396       399
       397       396       399       400       397       396       399       401
       397       396       399       402       398       396       399       400
       398       396       399       401       398       396       399       402
       403       404       419       420       403       404       419       421
       403       404       419       425       404       403       407       408
       404       403       407       409       404       403       407       410
       404       403       411       412       404       403       411       413
       404       403       411       414       404       403       415       416
       404       403       415       417       404       403       415       418
       404       419       425       422       405       404       403       407
       405       404       403       411       405       404       403       415
       405       404       419       420       405       404       419       421
       405       404       419       425       406       404       403       407
       406       404       403       411       406       404       403       415
       406       404       419       420       406       404       419       421
       406       404       419       425       407       403       404       419
       407       403       411       412       407       403       411       413
       407       403       411       414       407       403       415       416
       407       403       415       417       407       403       415       418
       408       407       403       411       408       407       403       415
       409       407       403       411       409       407       403       415
       410       407       403       411       410       407       403       415
       411       403       404       419       411       403       415       416
       411       403       415       417       411       403       415       418
       412       411       403       415       413       411       403       415
       414       411       403       415       415       403       404       419
       419       425       422       423       419       425       422       424
       419       425       422       426       420       419       425       422
       421       419       425       422       422       426       427       428
       422       426       427       429       422       426       427       430
       423       422       426       427       424       422       426       427
       425       422       426       427       426       427       430       431
       426       427       430       432       426       427       430       438
       427       430       432       433       427       430       438       439
       427       430       438       440       427       430       438       441
       428       427       430       431       428       427       430       432
       428       427       430       438       429       427       430       431
       429       427       430       432       429       427       430       438
       430       432       433       434       430       432       433       435
       430       438       441       442       431       430       432       433
       431       430       438       439       431       430       438       440
       431       430       438       441       432       430       438       439
       432       430       438       440       432       430       438       441
       432       433       435       436       432       433       435       437
       432       433       435       447       433       432       430       438
       433       435       447       448       433       435       447       449
       433       435       447       450       434       433       435       436
       434       433       435       437       434       433       435       447
       435       447       450       451       435       447       450       452
       435       447       450       453       436       435       447       448
       436       435       447       449       436       435       447       450
       437       435       447       448       437       435       447       449
       437       435       447       450       438       441       442       443
       438       441       442       444       439       438       441       442
       440       438       441       442       441       442       444       445
       441       442       444       446       441       442       444       494
       442       444       494       495       442       444       494       496
       442       444       494       497       443       442       444       445
       443       442       444       446       443       442       444       494
       444       494       497       498       444       494       497       499
       444       494       497       500       445       444       494       495
       445       444       494       496       445       444       494       497
       446       444       494       495       446       444       494       496
       446       444       494       497       447       450       453       454
       447       450       453       455       447       450       453       456
       448       447       450       451       448       447       450       452
       448       447       450       453       449       447       450       451
       449       447       450       452       449       447       450       453
       450       453       456       457       450       453       456       458
       450       453       456       459       451       450       453       454
       451       450       453       455       451       450       453       456
       452       450       453       454       452       450       453       455
       452       450       453       456       453       456       459       460
       453       456       459       461       453       456       459       462
       454       453       456       457       454       453       456       458
       454       453       456       459       455       453       456       457
       455       453       456       458       455       453       456       459
       456       459       462       463       456       459       462       464
       456       459       462       465       457       456       459       460
       457       456       459       461       457       456       459       462
       458       456       459       460       458       456       459       461
       458       456       459       462       459       462       465       466
       459       462       465       467       460       459       462       463
       460       459       462       464       460       459       462       465
       461       459       462       463       461       459       462       464
       461       459       462       465       462       465       467       468
       462       465       467       469       463       462       465       466
       463       462       465       467       464       462       465       466
       464       462       465       467       465       467       469       470
       465       467       469       471       465       467       469       472
       466       465       467       468       466       465       467       469
       467       469       472       473       467       469       472       474
       467       469       472       475       468       467       469       470
       468       467       469       471       468       467       469       472
       469       472       475       476       469       472       475       477
       469       472       475       478       470       469       472       473
       470       469       472       474       470       469       472       475
       471       469       472       473       471       469       472       474
       471       469       472       475       472       475       478       479
       472       475       478       480       472       475       478       481
       473       472       475       476       473       472       475       477
       473       472       475       478       474       472       475       476
       474       472       475       477       474       472       475       478
       475       478       481       482       475       478       481       483
       475       478       481       484       476       475       478       479
       476       475       478       480       476       475       478       481
       477       475       478       479       477       475       478       480
       477       475       478       481       478       481       484       485
       478       481       484       486       478       481       484       487
       479       478       481       482       479       478       481       483
       479       478       481       484       480       478       481       482
       480       478       481       483       480       478       481       484
       481       484       487       488       481       484       487       489
       481       484       487       490       482       481       484       485
       482       481       484       486       482       481       484       487
       483       481       484       485       483       481       484       486
       483       481       484       487       484       487       490       491
       484       487       490       492       484       487       490       493
       485       484       487       488       485       484       487       489
       485       484       487       490       486       484       487       488
       486       484       487       489       486       484       487       490
       488       487       490       491       488       487       490       492
       488       487       490       493       489       487       490       491
       489       487       490       492       489       487       490       493
       494       497       500       501       494       497       500       502
       494       497       500       503       495       494       497       498
       495       494       497       499       495       494       497       500
       496       494       497       498       496       494       497       499
       496       494       497       500       497       500       503       504
       497       500       503       505       497       500       503       506
       498       497       500       501       498       497       500       502
       498       497       500       503       499       497       500       501
       499       497       500       502       499       497       500       503
       500       503       506       507       500       503       506       508
       500       503       506       509       501       500       503       504
       501       500       503       505       501       500       503       506
       502       500       503       504       502       500       503       505
       502       500       503       506       503       506       509       510
       503       506       509       511       503       506       509       512
       504       503       506       507       504       503       506       508
       504       503       506       509       505       503       506       507
       505       503       506       508       505       503       506       509
       506       509       512       513       506       509       512       514
       506       509       512       515       507       506       509       510
       507       506       509       511       507       506       509       512
       508       506       509       510       508       506       509       511
       508       506       509       512       509       512       515       516
       509       512       515       517       509       512       515       518
       510       509       512       513       510       509       512       514
       510       509       512       515       511       509       512       513
       511       509       512       514       511       509       512       515
       512       515       518       519       512       515       518       520
       512       515       518       521       513       512       515       516
       513       512       515       517       513       512       515       518
       514       512       515       516       514       512       515       517
       514       512       515       518       515       518       521       522
       515       518       521       523       515       518       521       524
       516       515       518       519       516       515       518       520
       516       515       518       521       517       515       518       519
       517       515       518       520       517       515       518       521
       518       521       524       525       518       521       524       526
       518       521       524       527       519       518       521       522
       519       518       521       523       519       518       521       524
       520       518       521       522       520       518       521       523
       520       518       521       524       521       524       527       528
       521       524       527       529       521       524       527       530
       522       521       524       525       522       521       524       526
       522       521       524       527       523       521       524       525
       523       521       524       526       523       521       524       527
       524       527       530       531       524       527       530       532
       524       527       530       533       525       524       527       528
       525       524       527       529       525       524       527       530
       526       524       527       528       526       524       527       529
       526       524       527       530       527       530       533       534
       527       530       533       535       527       530       533       536
       528       527       530       531       528       527       530       532
       528       527       530       533       529       527       530       531
       529       527       530       532       529       527       530       533
       531       530       533       534       531       530       533       535
       531       530       533       536       532       530       533       534
       532       530       533       535       532       530       533       536
       537       538       553       554       537       538       553       555
       537       538       553       559       538       537       541       542
       538       537       541       543       538       537       541       544
       538       537       545       546       538       537       545       547
       538       537       545       548       538       537       549       550
       538       537       549       551       538       537       549       552
       538       553       559       556       539       538       537       541
       539       538       537       545       539       538       537       549
       539       538       553       554       539       538       553       555
       539       538       553       559       540       538       537       541
       540       538       537       545       540       538       537       549
       540       538       553       554       540       538       553       555
       540       538       553       559       541       537       538       553
       541       537       545       546       541       537       545       547
       541       537       545       548       541       537       549       550
       541       537       549       551       541       537       549       552
       542       541       537       545       542       541       537       549
       543       541       537       545       543       541       537       549
       544       541       537       545       544       541       537       549
       545       537       538       553       545       537       549       550
       545       537       549       551       545       537       549       552
       546       545       537       549       547       545       537       549
       548       545       537       549       549       537       538       553
       553       559       556       557       553       559       556       558
       553       559       556       560       554       553       559       556
       555       553       559       556       556       560       561       562
       556       560       561       563       556       560       561       564
       557       556       560       561       558       556       560       561
       559       556       560       561       560       561       564       565
       560       561       564       566       560       561       564       572
       561       564       566       567       561       564       572       573
       561       564       572       574       561       564       572       575
       562       561       564       565       562       561       564       566
       562       561       564       572       563       561       564       565
       563       561       564       566       563       561       564       572
       564       566       567       568       564       566       567       569
       564       572       575       576       565       564       566       567
       565       564       572       573       565       564       572       574
       565       564       572       575       566       564       572       573
       566       564       572       574       566       564       572       575
       566       567       569       570       566       567       569       571
       566       567       569       581       567       566       564       572
       567       569       581       582       567       569       581       583
       567       569       581       584       568       567       569       570
       568       567       569       571       568       567       569       581
       569       581       584       585       569       581       584       586
       569       581       584       587       570       569       581       582
       570       569       581       583       570       569       581       584
       571       569       581       582       571       569       581       583
       571       569       581       584       572       575       576       577
       572       575       576       578       573       572       575       576
       574       572       575       576       575       576       578       579
       575       576       578       580       575       576       578       628
       576       578       628       629       576       578       628       630
       576       578       628       631       577       576       578       579
       577       576       578       580       577       576       578       628
       578       628       631       632       578       628       631       633
       578       628       631       634       579       578       628       629
       579       578       628       630       579       578       628       631
       580       578       628       629       580       578       628       630
       580       578       628       631       581       584       587       588
       581       584       587       589       581       584       587       590
       582       581       584       585       582       581       584       586
       582       581       584       587       583       581       584       585
       583       581       584       586       583       581       584       587
       584       587       590       591       584       587       590       592
       584       587       590       593       585       584       587       588
       585       584       587       589       585       584       587       590
       586       584       587       588       586       584       587       589
       586       584       587       590       587       590       593       594
       587       590       593       595       587       590       593       596
       588       587       590       591       588       587       590       592
       588       587       590       593       589       587       590       591
       589       587       590       592       589       587       590       593
       590       593       596       597       590       593       596       598
       590       593       596       599       591       590       593       594
       591       590       593       595       591       590       593       596
       592       590       593       594       592       590       593       595
       592       590       593       596       593       596       599       600
       593       596       599       601       594       593       596       597
       594       593       596       598       594       593       596       599
       595       593       596       597       595       593       596       598
       595       593       596       599       596       599       601       602
       596       599       601       603       597       596       599       600
       597       596       599       601       598       596       599       600
       598       596       599       601       599       601       603       604
       599       601       603       605       599       601       603       606
       600       599       601       602       600       599       601       603
       601       603       606       607       601       603       606       608
       601       603       606       609       602       601       603       604
       602       601       603       605       602       601       603       606
       603       606       609       610       603       606       609       611
       603       606       609       612       604       603       606       607
       604       603       606       608       604       603       606       609
       605       603       606       607       605       603       606       608
       605       603       606       609       606       609       612       613
       606       609       612       614       606       609       612       615
       607       606       609       610       607       606       609       611
       607       606       609       612       608       606       609       610
       608       606       609       611       608       606       609       612
       609       612       615       616       609       612       615       617
       609       612       615       618       610       609       612       613
       610       609       612       614       610       609       612       615
       611       609       612       613       611       609       612       614
       611       609       612       615       612       615       618       619
       612       615       618       620       612       615       618       621
       613       612       615       616       613       612       615       617
       613       612       615       618       614       612       615       616
       614       612       615       617       614       612       615       618
       615       618       621       622       615       618       621       623
       615       618       621       624       616       615       618       619
       616       615       618       620       616       615       618       621
       617       615       618       619       617       615       618       620
       617       615       618       621       618       621       624       625
       618       621       624       626       618       621       624       627
       619       618       621       622       619       618       621       623
       619       618       621       624       620       618       621       622
       620       618       621       623       620       618       621       624
       622       621       624       625       622       621       624       626
       622       621       624       627       623       621       624       625
       623       621       624       626       623       621       624       627
       628       631       634       635       628       631       634       636
       628       631       634       637       629       628       631       632
       629       628       631       633       629       628       631       634
       630       628       631       632       630       628       631       633
       630       628       631       634       631       634       637       638
       631       634       637       639       631       634       637       640
       632       631       634       635       632       631       634       636
       632       631       634       637       633       631       634       635
       633       631       634       636       633       631       634       637
       634       637       640       641       634       637       640       642
       634       637       640       643       635       634       637       638
       635       634       637       639       635       634       637       640
       636       634       637       638       636       634       637       639
       636       634       637       640       637       640       643       644
       637       640       643       645       637       640       643       646
       638       637       640       641       638       637       640       642
       638       637       640       643       639       637       640       641
       639       637       640       642       639       637       640       643
       640       643       646       647       640       643       646       648
       640       643       646       649       641       640       643       644
       641       640       643       645       641       640       643       646
       642       640       643       644       642       640       643       645
       642       640       643       646       643       646       649       650
       643       646       649       651       643       646       649       652
       644       643       646       647       644       643       646       648
       644       643       646       649       645       643       646       647
       645       643       646       648       645       643       646       649
       646       649       652       653       646       649       652       654
       646       649       652       655       647       646       649       650
       647       646       649       651       647       646       649       652
       648       646       649       650       648       646       649       651
       648       646       649       652       649       652       655       656
       649       652       655       657       649       652       655       658
       650       649       652       653       650       649       652       654
       650       649       652       655       651       649       652       653
       651       649       652       654       651       649       652       655
       652       655       658       659       652       655       658       660
       652       655       658       661       653       652       655       656
       653       652       655       657       653       652       655       658
       654       652       655       656       654       652       655       657
       654       652       655       658       655       658       661       662
       655       658       661       663       655       658       661       664
       656       655       658       659       656       655       658       660
       656       655       658       661       657       655       658       659
       657       655       658       660       657       655       658       661
       658       661       664       665       658       661       664       666
       658       661       664       667       659       658       661       662
       659       658       661       663       659       658       661       664
       660       658       661       662       660       658       661       663
       660       658       661       664       661       664       667       668
       661       664       667       669       661       664       667       670
       662       661       664       665       662       661       664       666
       662       661       664       667       663       661       664       665
       663       661       664       666       663       661       664       667
       665       664       667       668       665       664       667       669
       665       664       667       670       666       664       667       668
       666       664       667       669       666       664       667       670
       671       672       687       688       671       672       687       689
       671       672       687       693       672       671       675       676
       672       671       675       677       672       671       675       678
       672       671       679       680       672       671       679       681
       672       671       679       682       672       671       683       684
       672       671       683       685       672       671       683       686
       672       687       693       690       673       672       671       675
       673       672       671       679       673       672       671       683
       673       672       687       688       673       672       687       689
       673       672       687       693       674       672       671       675
       674       672       671       679       674       672       671       683
       674       672       687       688       674       672       687       689
       674       672       687       693       675       671       672       687
       675       671       679       680       675       671       679       681
       675       671       679       682       675       671       683       684
       675       671       683       685       675       671       683       686
       676       675       671       679       676       675       671       683
       677       675       671       679       677       675       671       683
       678       675       671       679       678       675       671       683
       679       671       672       687       679       671       683       684
       679       671       683       685       679       671       683       686
       680       679       671       683       681       679       671       683
       682       679       671       683       683       671       672       687
       687       693       690       691       687       693       690       692
       687       693       690       694       688       687       693       690
       689       687       693       690       690       694       695       696
       690       694       695       697       690       694       695       698
       691       690       694       695       692       690       694       695
       693       690       694       695       694       695       698       699
       694       695       698       700       694       695       698       706
       695       698       700       701       695       698       706       707
       695       698       706       708       695       698       706       709
       696       695       698       699       696       695       698       700
       696       695       698       706       697       695       698       699
       697       695       698       700       697       695       698       706
       698       700       701       702       698       700       701       703
       698       706       709       710       699       698       700       701
       699       698       706       707       699       698       706       708
       699       698       706       709       700       698       706       707
       700       698       706       708       700       698       706       709
       700       701       703       704       700       701       703       705
       700       701       703       715       701       700       698       706
       701       703       715       716       701       703       715       717
       701       703       715       718       702       701       703       704
       702       701       703       705       702       701       703       715
       703       715       718       719       703       715       718       720
       703       715       718       721       704       703       715       716
       704       703       715       717       704       703       715       718
       705       703       715       716       705       703       715       717
       705       703       715       718       706       709       710       711
       706       709       710       712       707       706       709       710
       708       706       709       710       709       710       712       713
       709       710       712       714       709       710       712       762
       710       712       762       763       710       712       762       764
       710       712       762       765       711       710       712       713
       711       710       712       714       711       710       712       762
       712       762       765       766       712       762       765       767
       712       762       765       768       713       712       762       763
       713       712       762       764       713       712       762       765
       714       712       762       763       714       712       762       764
       714       712       762       765       715       718       721       722
       715       718       721       723       715       718       721       724
       716       715       718       719       716       715       718       720
       716       715       718       721       717       715       718       719
       717       715       718       720       717       715       718       721
       718       721       724       725       718       721       724       726
       718       721       724       727       719       718       721       722
       719       718       721       723       719       718       721       724
       720       718       721       722       720       718       721       723
       720       718       721       724       721       724       727       728
       721       724       727       729       721       724       727       730
       722       721       724       725       722       721       724       726
       722       721       724       727       723       721       724       725
       723       721       724       726       723       721       724       727
       724       727       730       731       724       727       730       732
       724       727       730       733       725       724       727       728
       725       724       727       729       725       724       727       730
       726       724       727       728       726       724       727       729
       726       724       727       730       727       730       733       734
       727       730       733       735       728       727       730       731
       728       727       730       732       728       727       730       733
       729       727       730       731       729       727       730       732
       729       727       730       733       730       733       735       736
       730       733       735       737       731       730       733       734
       731       730       733       735       732       730       733       734
       732       730       733       735       733       735       737       738
       733       735       737       739       733       735       737       740
       734       733       735       736       734       733       735       737
       735       737       740       741       735       737       740       742
       735       737       740       743       736       735       737       738
       736       735       737       739       736       735       737       740
       737       740       743       744       737       740       743       745
       737       740       743       746       738       737       740       741
       738       737       740       742       738       737       740       743
       739       737       740       741       739       737       740       742
       739       737       740       743       740       743       746       747
       740       743       746       748       740       743       746       749
       741       740       743       744       741       740       743       745
       741       740       743       746       742       740       743       744
       742       740       743       745       742       740       743       746
       743       746       749       750       743       746       749       751
       743       746       749       752       744       743       746       747
       744       743       746       748       744       743       746       749
       745       743       746       747       745       743       746       748
       745       743       746       749       746       749       752       753
       746       749       752       754       746       749       752       755
       747       746       749       750       747       746       749       751
       747       746       749       752       748       746       749       750
       748       746       749       751       748       746       749       752
       749       752       755       756       749       752       755       757
       749       752       755       758       750       749       752       753
       750       749       752       754       750       749       752       755
       751       749       752       753       751       749       752       754
       751       749       752       755       752       755       758       759
       752       755       758       760       752       755       758       761
       753       752       755       756       753       752       755       757
       753       752       755       758       754       752       755       756
       754       752       755       757       754       752       755       758
       756       755       758       759       756       755       758       760
       756       755       758       761       757       755       758       759
       757       755       758       760       757       755       758       761
       762       765       768       769       762       765       768       770
       762       765       768       771       763       762       765       766
       763       762       765       767       763       762       765       768
       764       762       765       766       764       762       765       767
       764       762       765       768       765       768       771       772
       765       768       771       773       765       768       771       774
       766       765       768       769       766       765       768       770
       766       765       768       771       767       765       768       769
       767       765       768       770       767       765       768       771
       768       771       774       775       768       771       774       776
       768       771       774       777       769       768       771       772
       769       768       771       773       769       768       771       774
       770       768       771       772       770       768       771       773
       770       768       771       774       771       774       777       778
       771       774       777       779       771       774       777       780
       772       771       774       775       772       771       774       776
       772       771       774       777       773       771       774       775
       773       771       774       776       773       771       774       777
       774       777       780       781       774       777       780       782
       774       777       780       783       775       774       777       778
       775       774       777       779       775       774       777       780
       776       774       777       778       776       774       777       779
       776       774       777       780       777       780       783       784
       777       780       783       785       777       780       783       786
       778       777       780       781       778       777       780       782
       778       777       780       783       779       777       780       781
       779       777       780       782       779       777       780       783
       780       783       786       787       780       783       786       788
       780       783       786       789       781       780       783       784
       781       780       783       785       781       780       783       786
       782       780       783       784       782       780       783       785
       782       780       783       786       783       786       789       790
       783       786       789       791       783       786       789       792
       784       783       786       787       784       783       786       788
       784       783       786       789       785       783       786       787
       785       783       786       788       785       783       786       789
       786       789       792       793       786       789       792       794
       786       789       792       795       787       786       789       790
       787       786       789       791       787       786       789       792
       788       786       789       790       788       786       789       791
       788       786       789       792       789       792       795       796
       789       792       795       797       789       792       795       798
       790       789       792       793       790       789       792       794
       790       789       792       795       791       789       792       793
       791       789       792       794       791       789       792       795
       792       795       798       799       792       795       798       800
       792       795       798       801       793       792       795       796
       793       792       795       797       793       792       795       798
       794       792       795       796       794       792       795       797
       794       792       795       798       795       798       801       802
       795       798       801       803       795       798       801       804
       796       795       798       799       796       795       798       800
       796       795       798       801       797       795       798       799
       797       795       798       800       797       795       798       801
       799       798       801       802       799       798       801       803
       799       798       801       804       800       798       801       802
       800       798       801       803       800       798       801       804
       805       806       821       822       805       806       821       823
       805       806       821       827       806       805       809       810
       806       805       809       811       806       805       809       812
       806       805       813       814       806       805       813       815
       806       805       813       816       806       805       817       818
       806       805       817       819       806       805       817       820
       806       821       827       824       807       806       805       809
       807       806       805       813       807       806       805       817
       807       806       821       822       807       806       821       823
       807       806       821       827       808       806       805       809
       808       806       805       813       808       806       805       817
       808       806       821       822       808       806       821       823
       808       806       821       827       809       805       806       821
       809       805       813       814       809       805       813       815
       809       805       813       816       809       805       817       818
       809       805       817       819       809       805       817       820
       810       809       805       813       810       809       805       817
       811       809       805       813       811       809       805       817
       812       809       805       813       812       809       805       817
       813       805       806       821       813       805       817       818
       813       805       817       819       813       805       817       820
       814       813       805       817       815       813       805       817
       816       813       805       817       817       805       806       821
       821       827       824       825       821       827       824       826
       821       827       824       828       822       821       827       824
       823       821       827       824       824       828       829       830
       824       828       829       831       824       828       829       832
       825       824       828       829       826       824       828       829
       827       824       828       829       828       829       832       833
       828       829       832       834       828       829       832       840
       829       832       834       835       829       832       840       841
       829       832       840       842       829       832       840       843
       830       829       832       833       830       829       832       834
       830       829       832       840       831       829       832       833
       831       829       832       834       831       829       832       840
       832       834       835       836       832       834       835       837
       832       840       843       844       833       832       834       835
       833       832       840       841       833       832       840       842
       833       832       840       843       834       832       840       841
       834       832       840       842       834       832       840       843
       834       835       837       838       834       835       837       839
       834       835       837       849       835       834       832       840
       835       837       849       850       835       837       849       851
       835       837       849       852       836       835       837       838
       836       835       837       839       836       835       837       849
       837       849       852       853       837       849       852       854
       837       849       852       855       838       837       849       850
       838       837       849       851       838       837       849       852
       839       837       849       850       839       837       849       851
       839       837       849       852       840       843       844       845
       840       843       844       846       841       840       843       844
       842       840       843       844       843       844       846       847
       843       844       846       848       843       844       846       896
       844       846       896       897       844       846       896       898
       844       846       896       899       845       844       846       847
       845       844       846       848       845       844       846       896
       846       896       899       900       846       896       899       901
       846       896       899       902       847       846       896       897
       847       846       896       898       847       846       896       899
       848       846       896       897       848       846       896       898
       848       846       896       899       849       852       855       856
       849       852       855       857       849       852       855       858
       850       849       852       853       850       849       852       854
       850       849       852       855       851       849       852       853
       851       849       852       854       851       849       852       855
       852       855       858       859       852       855       858       860
       852       855       858       861       853       852       855       856
       853       852       855       857       853       852       855       858
       854       852       855       856       854       852       855       857
       854       852       855       858       855       858       861       862
       855       858       861       863       855       858       861       864
       856       855       858       859       856       855       858       860
       856       855       858       861       857       855       858       859
       857       855       858       860       857       855       858       861
       858       861       864       865       858       861       864       866
       858       861       864       867       859       858       861       862
       859       858       861       863       859       858       861       864
       860       858       861       862       860       858       861       863
       860       858       861       864       861       864       867       868
       861       864       867       869       862       861       864       865
       862       861       864       866       862       861       864       867
       863       861       864       865       863       861       864       866
       863       861       864       867       864       867       869       870
       864       867       869       871       865       864       867       868
       865       864       867       869       866       864       867       868
       866       864       867       869       867       869       871       872
       867       869       871       873       867       869       871       874
       868       867       869       870       868       867       869       871
       869       871       874       875       869       871       874       876
       869       871       874       877       870       869       871       872
       870       869       871       873       870       869       871       874
       871       874       877       878       871       874       877       879
       871       874       877       880       872       871       874       875
       872       871       874       876       872       871       874       877
       873       871       874       875       873       871       874       876
       873       871       874       877       874       877       880       881
       874       877       880       882       874       877       880       883
       875       874       877       878       875       874       877       879
       875       874       877       880       876       874       877       878
       876       874       877       879       876       874       877       880
       877       880       883       884       877       880       883       885
       877       880       883       886       878       877       880       881
       878       877       880       882       878       877       880       883
       879       877       880       881       879       877       880       882
       879       877       880       883       880       883       886       887
       880       883       886       888       880       883       886       889
       881       880       883       884       881       880       883       885
       881       880       883       886       882       880       883       884
       882       880       883       885       882       880       883       886
       883       886       889       890       883       886       889       891
       883       886       889       892       884       883       886       887
       884       883       886       888       884       883       886       889
       885       883       886       887       885       883       886       888
       885       883       886       889       886       889       892       893
       886       889       892       894       886       889       892       895
       887       886       889       890       887       886       889       891
       887       886       889       892       888       886       889       890
       888       886       889       891       888       886       889       892
       890       889       892       893       890       889       892       894
       890       889       892       895       891       889       892       893
       891       889       892       894       891       889       892       895
       896       899       902       903       896       899       902       904
       896       899       902       905       897       896       899       900
       897       896       899       901       897       896       899       902
       898       896       899       900       898       896       899       901
       898       896       899       902       899       902       905       906
       899       902       905       907       899       902       905       908
       900       899       902       903       900       899       902       904
       900       899       902       905       901       899       902       903
       901       899       902       904       901       899       902       905
       902       905       908       909       902       905       908       910
       902       905       908       911       903       902       905       906
       903       902       905       907       903       902       905       908
       904       902       905       906       904       902       905       907
       904       902       905       908       905       908       911       912
       905       908       911       913       905       908       911       914
       906       905       908       909       906       905       908       910
       906       905       908       911       907       905       908       909
       907       905       908       910       907       905       908       911
       908       911       914       915       908       911       914       916
       908       911       914       917       909       908       911       912
       909       908       911       913       909       908       911       914
       910       908       911       912       910       908       911       913
       910       908       911       914       911       914       917       918
       911       914       917       919       911       914       917       920
       912       911       914       915       912       911       914       916
       912       911       914       917       913       911       914       915
       913       911       914       916       913       911       914       917
       914       917       920       921       914       917       920       922
       914       917       920       923       915       914       917       918
       915       914       917       919       915       914       917       920
       916       914       917       918       916       914       917       919
       916       914       917       920       917       920       923       924
       917       920       923       925       917       920       923       926
       918       917       920       921       918       917       920       922
       918       917       920       923       919       917       920       921
       919       917       920       922       919       917       920       923
       920       923       926       927       920       923       926       928
       920       923       926       929       921       920       923       924
       921       920       923       925       921       920       923       926
       922       920       923       924       922       920       923       925
       922       920       923       926       923       926       929       930
       923       926       929       931       923       926       929       932
       924       923       926       927       924       923       926       928
       924       923       926       929       925       923       926       927
       925       923       926       928       925       923       926       929
       926       929       932       933       926       929       932       934
       926       929       932       935       927       926       929       930
       927       926       929       931       927       926       929       932
       928       926       929       930       928       926       929       931
       928       926       929       932       929       932       935       936
       929       932       935       937       929       932       935       938
       930       929       932       933       930       929       932       934
       930       929       932       935       931       929       932       933
       931       929       932       934       931       929       932       935
       933       932       935       936       933       932       935       937
       933       932       935       938       934       932       935       936
       934       932       935       937       934       932       935       938
       939       940       955       956       939       940       955       957
       939       940       955       961       940       939       943       944
       940       939       943       945       940       939       943       946
       940       939       947       948       940       939       947       949
       940       939       947       950       940       939       951       952
       940       939       951       953       940       939       951       954
       940       955       961       958       941       940       939       943
       941       940       939       947       941       940       939       951
       941       940       955       956       941       940       955       957
       941       940       955       961       942       940       939       943
       942       940       939       947       942       940       939       951
       942       940       955       956       942       940       955       957
       942       940       955       961       943       939       940       955
       943       939       947       948       943       939       947       949
       943       939       947       950       943       939       951       952
       943       939       951       953       943       939       951       954
       944       943       939       947       944       943       939       951
       945       943       939       947       945       943       939       951
       946       943       939       947       946       943       939       951
       947       939       940       955       947       939       951       952
       947       939       951       953       947       939       951       954
       948       947       939       951       949       947       939       951
       950       947       939       951       951       939       940       955
       955       961       958       959       955       961       958       960
       955       961       958       962       956       955       961       958
       957       955       961       958       958       962       963       964
       958       962       963       965       958       962       963       966
       959       958       962       963       960       958       962       963
       961       958       962       963       962       963       966       967
       962       963       966       968       962       963       966       974
       963       966       968       969       963       966       974       975
       963       966       974       976       963       966       974       977
       964       963       966       967       964       963       966       968
       964       963       966       974       965       963       966       967
       965       963       966       968       965       963       966       974
       966       968       969       970       966       968       969       971
       966       974       977       978       967       966       968       969
       967       966       974       975       967       966       974       976
       967       966       974       977       968       966       974       975
       968       966       974       976       968       966       974       977
       968       969       971       972       968       969       971       973
       968       969       971       983       969       968       966       974
       969       971       983       984       969       971       983       985
       969       971       983       986       970       969       971       972
       970       969       971       973       970       969       971       983
       971       983       986       987       971       983       986       988
       971       983       986       989       972       971       983       984
       972       971       983       985       972       971       983       986
       973       971       983       984       973       971       983       985
       973       971       983       986       974       977       978       979
       974       977       978       980       975       974       977       978
       976       974       977       978       977       978       980       981
       977       978       980       982       977       978       980      1030
       978       980      1030      1031       978       980      1030      1032
       978       980      1030      1033       979       978       980       981
       979       978       980       982       979       978       980      1030
       980      1030      1033      1034       980      1030      1033      1035
       980      1030      1033      1036       981       980      1030      1031
       981       980      1030      1032       981       980      1030      1033
       982       980      1030      1031       982       980      1030      1032
       982       980      1030      1033       983       986       989       990
       983       986       989       991       983       986       989       992
       984       983       986       987       984       983       986       988
       984       983       986       989       985       983       986       987
       985       983       986       988       985       983       986       989
       986       989       992       993       986       989       992       994
       986       989       992       995       987       986       989       990
       987       986       989       991       987       986       989       992
       988       986       989       990       988       986       989       991
       988       986       989       992       989       992       995       996
       989       992       995       997       989       992       995       998
       990       989       992       993       990       989       992       994
       990       989       992       995       991       989       992       993
       991       989       992       994       991       989       992       995
       992       995       998       999       992       995       998      1000
       992       995       998      1001       993       992       995       996
       993       992       995       997       993       992       995       998
       994       992       995       996       994       992       995       997
       994       992       995       998       995       998      1001      1002
       995       998      1001      1003       996       995       998       999
       996       995       998      1000       996       995       998      1001
       997       995       998       999       997       995       998      1000
       997       995       998      1001       998      1001      1003      1004
       998      1001      1003      1005       999       998      1001      1002
       999       998      1001      1003      1000       998      1001      1002
      1000       998      1001      1003      1001      1003      1005      1006
      1001      1003      1005      1007      1001      1003      1005      1008
      1002      1001      1003      1004      1002      1001      1003      1005
      1003      1005      1008      1009      1003      1005      1008      1010
      1003      1005      1008      1011      1004      1003      1005      1006
      1004      1003      1005      1007      1004      1003      1005      1008
      1005      1008      1011      1012      1005      1008      1011      1013
      1005      1008      1011      1014      1006      1005      1008      1009
      1006      1005      1008      1010      1006      1005      1008      1011
      1007      1005      1008      1009      1007      1005      1008      1010
      1007      1005      1008      1011      1008      1011      1014      1015
      1008      1011      1014      1016      1008      1011      1014      1017
      1009      1008      1011      1012      1009      1008      1011      1013
      1009      1008      1011      1014      1010      1008      1011      1012
      1010      1008      1011      1013      1010      1008      1011      1014
      1011      1014      1017      1018      1011      1014      1017      1019
      1011      1014      1017      1020      1012      1011      1014      1015
      1012      1011      1014      1016      1012      1011      1014      1017
      1013      1011      1014      1015      1013      1011      1014      1016
      1013      1011      1014      1017      1014      1017      1020      1021
      1014      1017      1020      1022      1014      1017      1020      1023
      1015      1014      1017      1018      1015      1014      1017      1019
      1015      1014      1017      1020      1016      1014      1017      1018
      1016      1014      1017      1019      1016      1014      1017      1020
      1017      1020      1023      1024      1017      1020      1023      1025
      1017      1020      1023      1026      1018      1017      1020      1021
      1018      1017      1020      1022      1018      1017      1020      1023
      1019      1017      1020      1021      1019      1017      1020      1022
      1019      1017      1020      1023      1020      1023      1026      1027
      1020      1023      1026      1028      1020      1023      1026      1029
      1021      1020      1023      1024      1021      1020      1023      1025
      1021      1020      1023      1026      1022      1020      1023      1024
      1022      1020      1023      1025      1022      1020      1023      1026
      1024      1023      1026      1027      1024      1023      1026      1028
      1024      1023      1026      1029      1025      1023      1026      1027
      1025      1023      1026      1028      1025      1023      1026      1029
      1030      1033      1036      1037      1030      1033      1036      1038
      1030      1033      1036      1039      1031      1030      1033      1034
      1031      1030      1033      1035      1031      1030      1033      1036
      1032      1030      1033      1034      1032      1030      1033      1035
      1032      1030      1033      1036      1033      1036      1039      1040
      1033      1036      1039      1041      1033      1036      1039      1042
      1034      1033      1036      1037      1034      1033      1036      1038
      1034      1033      1036      1039      1035      1033      1036      1037
      1035      1033      1036      1038      1035      1033      1036      1039
      1036      1039      1042      1043      1036      1039      1042      1044
      1036      1039      1042      1045      1037      1036      1039      1040
      1037      1036      1039      1041      1037      1036      1039      1042
      1038      1036      1039      1040      1038      1036      1039      1041
      1038      1036      1039      1042      1039      1042      1045      1046
      1039      1042      1045      1047      1039      1042      1045      1048
      1040      1039      1042      1043      1040      1039      1042      1044
      1040      1039      1042      1045      1041      1039      1042      1043
      1041      1039      1042      1044      1041      1039      1042      1045
      1042      1045      1048      1049      1042      1045      1048      1050
      1042      1045      1048      1051      1043      1042      1045      1046
      1043      1042      1045      1047      1043      1042      1045      1048
      1044      1042      1045      1046      1044      1042      1045      1047
      1044      1042      1045      1048      1045      1048      1051      1052
      1045      1048      1051      1053      1045      1048      1051      1054
      1046      1045      1048      1049      1046      1045      1048      1050
      1046      1045      1048      1051      1047      1045      1048      1049
      1047      1045      1048      1050      1047      1045      1048      1051
      1048      1051      1054      1055      1048      1051      1054      1056
      1048      1051      1054      1057      1049      1048      1051      1052
      1049      1048      1051      1053      1049      1048      1051      1054
      1050      1048      1051      1052      1050      1048      1051      1053
      1050      1048      1051      1054      1051      1054      1057      1058
      1051      1054      1057      1059      1051      1054      1057      1060
      1052      1051      1054      1055      1052      1051      1054      1056
      1052      1051      1054      1057      1053      1051      1054      1055
      1053      1051      1054      1056      1053      1051      1054      1057
      1054      1057      1060      1061      1054      1057      1060      1062
      1054      1057      1060      1063      1055      1054      1057      1058
      1055      1054      1057      1059      1055      1054      1057      1060
      1056      1054      1057      1058      1056      1054      1057      1059
      1056      1054      1057      1060      1057      1060      1063      1064
      1057      1060      1063      1065      1057      1060      1063      1066
      1058      1057      1060      1061      1058      1057      1060      1062
      1058      1057      1060      1063      1059      1057      1060      1061
      1059      1057      1060      1062      1059      1057      1060      1063
      1060      1063      1066      1067      1060      1063      1066      1068
      1060      1063      1066      1069      1061      1060      1063      1064
      1061      1060      1063      1065      1061      1060      1063      1066
      1062      1060      1063      1064      1062      1060      1063      1065
      1062      1060      1063      1066      1063      1066      1069      1070
      1063      1066      1069      1071      1063      1066      1069      1072
      1064      1063      1066      1067      1064      1063      1066      1068
      1064      1063      1066      1069      1065      1063      1066      1067
      1065      1063      1066      1068      1065      1063      1066      1069
      1067      1066      1069      1070      1067      1066      1069      1071
      1067      1066      1069      1072      1068      1066      1069      1070
      1068      1066      1069      1071      1068      1066      1069      1072
      1073      1074      1089      1090      1073      1074      1089      1091
      1073      1074      1089      1095      1074      1073      1077      1078
      1074      1073      1077      1079      1074      1073      1077      1080
      1074      1073      1081      1082      1074      1073      1081      1083
      1074      1073      1081      1084      1074      1073      1085      1086
      1074      1073      1085      1087      1074      1073      1085      1088
      1074      1089      1095      1092      1075      1074      1073      1077
      1075      1074      1073      1081      1075      1074      1073      1085
      1075      1074      1089      1090      1075      1074      1089      1091
      1075      1074      1089      1095      1076      1074      1073      1077
      1076      1074      1073      1081      1076      1074      1073      1085
      1076      1074      1089      1090      1076      1074      1089      1091
      1076      1074      1089      1095      1077      1073      1074      1089
      1077      1073      1081      1082      1077      1073      1081      1083
      1077      1073      1081      1084      1077      1073      1085      1086
      1077      1073      1085      1087      1077      1073      1085      1088
      1078      1077      1073      1081      1078      1077      1073      1085
      1079      1077      1073      1081      1079      1077      1073      1085
      1080      1077      1073      1081      1080      1077      1073      1085
      1081      1073      1074      1089      1081      1073      1085      1086
      1081      1073      1085      1087      1081      1073      1085      1088
      1082      1081      1073      1085      1083      1081      1073      1085
      1084      1081      1073      1085      1085      1073      1074      1089
      1089      1095      1092      1093      1089      1095      1092      1094
      1089      1095      1092      1096      1090      1089      1095      1092
      1091      1089      1095      1092      1092      1096      1097      1098
      1092      1096      1097      1099      1092      1096      1097      1100
      1093      1092      1096      1097      1094      1092      1096      1097
      1095      1092      1096      1097      1096      1097      1100      1101
      1096      1097      1100      1102      1096      1097      1100      1108
      1097      1100      1102      1103      1097      1100      1108      1109
      1097      1100      1108      1110      1097      1100      1108      1111
      1098      1097      1100      1101      1098      1097      1100      1102
      1098      1097      1100      1108      1099      1097      1100      1101
      1099      1097      1100      1102      1099      1097      1100      1108
      1100      1102      1103      1104      1100      1102      1103      1105
      1100      1108      1111      1112      1101      1100      1102      1103
      1101      1100      1108      1109      1101      1100      1108      1110
      1101      1100      1108      1111      1102      1100      1108      1109
      1102      1100      1108      1110      1102      1100      1108      1111
      1102      1103      1105      1106      1102      1103      1105      1107
      1102      1103      1105      1117      1103      1102      1100      1108
      1103      1105      1117      1118      1103      1105      1117      1119
      1103      1105      1117      1120      1104      1103      1105      1106
      1104      1103      1105      1107      1104      1103      1105      1117
      1105      1117      1120      1121      1105      1117      1120      1122
      1105      1117      1120      1123      1106      1105      1117      1118
      1106      1105      1117      1119      1106      1105      1117      1120
      1107      1105      1117      1118      1107      1105      1117      1119
      1107      1105      1117      1120      1108      1111      1112      1113
      1108      1111      1112      1114      1109      1108      1111      1112
      1110      1108      1111      1112      1111      1112      1114      1115
      1111      1112      1114      1116      1111      1112      1114      1164
      1112      1114      1164      1165      1112      1114      1164      1166
      1112      1114      1164      1167      1113      1112      1114      1115
      1113      1112      1114      1116      1113      1112      1114      1164
      1114      1164      1167      1168      1114      1164      1167      1169
      1114      1164      1167      1170      1115      1114      1164      1165
      1115      1114      1164      1166      1115      1114      1164      1167
      1116      1114      1164      1165      1116      1114      1164      1166
      1116      1114      1164      1167      1117      1120      1123      1124
      1117      1120      1123      1125      1117      1120      1123      1126
      1118      1117      1120      1121      1118      1117      1120      1122
      1118      1117      1120      1123      1119      1117      1120      1121
      1119      1117      1120      1122      1119      1117      1120      1123
      1120      1123      1126      1127      1120      1123      1126      1128
      1120      1123      1126      1129      1121      1120      1123      1124
      1121      1120      1123      1125      1121      1120      1123      1126
      1122      1120      1123      1124      1122      1120      1123      1125
      1122      1120      1123      1126      1123      1126      1129      1130
      1123      1126      1129      1131      1123      1126      1129      1132
      1124      1123      1126      1127      1124      1123      1126      1128
      1124      1123      1126      1129      1125      1123      1126      1127
      1125      1123      1126      1128      1125      1123      1126      1129
      1126      1129      1132      1133      1126      1129      1132      1134
      1126      1129      1132      1135      1127      1126      1129      1130
      1127      1126      1129      1131      1127      1126      1129      1132
      1128      1126      1129      1130      1128      1126      1129      1131
      1128      1126      1129      1132      1129      1132      1135      1136
      1129      1132      1135      1137      1130      1129      1132      1133
      1130      1129      1132      1134      1130      1129      1132      1135
      1131      1129      1132      1133      1131      1129      1132      1134
      1131      1129      1132      1135      1132      1135      1137      1138
      1132      1135      1137      1139      1133      1132      1135      1136
      1133      1132      1135      1137      1134      1132      1135      1136
      1134      1132      1135      1137      1135      1137      1139      1140
      1135      1137      1139      1141      1135      1137      1139      1142
      1136      1135      1137      1138      1136      1135      1137      1139
      1137      1139      1142      1143      1137      1139      1142      1144
      1137      1139      1142      1145      1138      1137      1139      1140
      1138      1137      1139      1141      1138      1137      1139      1142
      1139      1142      1145      1146      1139      1142      1145      1147
      1139      1142      1145      1148      1140      1139      1142      1143
      1140      1139      1142      1144      1140      1139      1142      1145
      1141      1139      1142      1143      1141      1139      1142      1144
      1141      1139      1142      1145      1142      1145      1148      1149
      1142      1145      1148      1150      1142      1145      1148      1151
      1143      1142      1145      1146      1143      1142      1145      1147
      1143      1142      1145      1148      1144      1142      1145      1146
      1144      1142      1145      1147      1144      1142      1145      1148
      1145      1148      1151      1152      1145      1148      1151      1153
      1145      1148      1151      1154      1146      1145      1148      1149
      1146      1145      1148      1150      1146      1145      1148      1151
      1147      1145      1148      1149      1147      1145      1148      1150
      1147      1145      1148      1151      1148      1151      1154      1155
      1148      1151      1154      1156      1148      1151      1154      1157
      1149      1148      1151      1152      1149      1148      1151      1153
      1149      1148      1151      1154      1150      1148      1151      1152
      1150      1148      1151      1153      1150      1148      1151      1154
      1151      1154      1157      1158      1151      1154      1157      1159
      1151      1154      1157      1160      1152      1151      1154      1155
      1152      1151      1154      1156      1152      1151      1154      1157
      1153      1151      1154      1155      1153      1151      1154      1156
      1153      1151      1154      1157      1154      1157      1160      1161
      1154      1157      1160      1162      1154      1157      1160      1163
      1155      1154      1157      1158      1155      1154      1157      1159
      1155      1154      1157      1160      1156      1154      1157      1158
      1156      1154      1157      1159      1156      1154      1157      1160
      1158      1157      1160      1161      1158      1157      1160      1162
      1158      1157      1160      1163      1159      1157      1160      1161
      1159      1157      1160      1162      1159      1157      1160      1163
      1164      1167      1170      1171      1164      1167      1170      1172
      1164      1167      1170      1173      1165      1164      1167      1168
      1165      1164      1167      1169      1165      1164      1167      1170
      1166      1164      1167      1168      1166      1164      1167      1169
      1166      1164      1167      1170      1167      1170      1173      1174
      1167      1170      1173      1175      1167      1170      1173      1176
      1168      1167      1170      1171      1168      1167      1170      1172
      1168      1167      1170      1173      1169      1167      1170      1171
      1169      1167      1170      1172      1169      1167      1170      1173
      1170      1173      1176      1177      1170      1173      1176      1178
      1170      1173      1176      1179      1171      1170      1173      1174
      1171      1170      1173      1175      1171      1170      1173      1176
      1172      1170      1173      1174      1172      1170      1173      1175
      1172      1170      1173      1176      1173      1176      1179      1180
      1173      1176      1179      1181      1173      1176      1179      1182
      1174      1173      1176      1177      1174      1173      1176      1178
      1174      1173      1176      1179      1175      1173      1176      1177
      1175      1173      1176      1178      1175      1173      1176      1179
      1176      1179      1182      1183      1176      1179      1182      1184
      1176      1179      1182      1185      1177      1176      1179      1180
      1177      1176      1179      1181      1177      1176      1179      1182
      1178      1176      1179      1180      1178      1176      1179      1181
      1178      1176      1179      1182      1179      1182      1185      1186
      1179      1182      1185      1187      1179      1182      1185      1188
      1180      1179      1182      1183      1180      1179      1182      1184
      1180      1179      1182      1185      1181      1179      1182      1183
      1181      1179      1182      1184      1181      1179      1182      1185
      1182      1185      1188      1189      1182      1185      1188      1190
      1182      1185      1188      1191      1183      1182      1185      1186
      1183      1182      1185      1187      1183      1182      1185      1188
      1184      1182      1185      1186      1184      1182      1185      1187
      1184      1182      1185      1188      1185      1188      1191      1192
      1185      1188      1191      1193      1185      1188      1191      1194
      1186      1185      1188      1189      1186      1185      1188      1190
      1186      1185      1188      1191      1187      1185      1188      1189
      1187      1185      1188      1190      1187      1185      1188      1191
      1188      1191      1194      1195      1188      1191      1194      1196
      1188      1191      1194      1197      1189      1188      1191      1192
      1189      1188      1191      1193      1189      1188      1191      1194
      1190      1188      1191      1192      1190      1188      1191      1193
      1190      1188      1191      1194      1191      1194      1197      1198
      1191      1194      1197      1199      1191      1194      1197      1200
      1192      1191      1194      1195      1192      1191      1194      1196
      1192      1191      1194      1197      1193      1191      1194      1195
      1193      1191      1194      1196      1193      1191      1194      1197
      1194      1197      1200      1201      1194      1197      1200      1202
      1194      1197      1200      1203      1195      1194      1197      1198
      1195      1194      1197      1199      1195      1194      1197      1200
      1196      1194      1197      1198      1196      1194      1197      1199
      1196      1194      1197      1200      1197      1200      1203      1204
      1197      1200      1203      1205      1197      1200      1203      1206
      1198      1197      1200      1201      1198      1197      1200      1202
      1198      1197      1200      1203      1199      1197      1200      1201
      1199      1197      1200      1202      1199      1197      1200      1203
      1201      1200      1203      1204      1201      1200      1203      1205
      1201      1200      1203      1206      1202      1200      1203      1204
      1202      1200      1203      1205      1202      1200      1203      1206
      1207      1208      1223      1224      1207      1208      1223      1225
      1207      1208      1223      1229      1208      1207      1211      1212
      1208      1207      1211      1213      1208      1207      1211      1214
      1208      1207      1215      1216      1208      1207      1215      1217
      1208      1207      1215      1218      1208      1207      1219      1220
      1208      1207      1219      1221      1208      1207      1219      1222
      1208      1223      1229      1226      1209      1208      1207      1211
      1209      1208      1207      1215      1209      1208      1207      1219
      1209      1208      1223      1224      1209      1208      1223      1225
      1209      1208      1223      1229      1210      1208      1207      1211
      1210      1208      1207      1215      1210      1208      1207      1219
      1210      1208      1223      1224      1210      1208      1223      1225
      1210      1208      1223      1229      1211      1207      1208      1223
      1211      1207      1215      1216      1211      1207      1215      1217
      1211      1207      1215      1218      1211      1207      1219      1220
      1211      1207      1219      1221      1211      1207      1219      1222
      1212      1211      1207      1215      1212      1211      1207      1219
      1213      1211      1207      1215      1213      1211      1207      1219
      1214      1211      1207      1215      1214      1211      1207      1219
      1215      1207      1208      1223      1215      1207      1219      1220
      1215      1207      1219      1221      1215      1207      1219      1222
      1216      1215      1207      1219      1217      1215      1207      1219
      1218      1215      1207      1219      1219      1207      1208      1223
      1223      1229      1226      1227      1223      1229      1226      1228
      1223      1229      1226      1230      1224      1223      1229      1226
      1225      1223      1229      1226      1226      1230      1231      1232
      1226      1230      1231      1233      1226      1230      1231      1234
      1227      1226      1230      1231      1228      1226      1230      1231
      1229      1226      1230      1231      1230      1231      1234      1235
      1230      1231      1234      1236      1230      1231      1234      1242
      1231      1234      1236      1237      1231      1234      1242      1243
      1231      1234      1242      1244      1231      1234      1242      1245
      1232      1231      1234      1235      1232      1231      1234      1236
      1232      1231      1234      1242      1233      1231      1234      1235
      1233      1231      1234      1236      1233      1231      1234      1242
      1234      1236      1237      1238      1234      1236      1237      1239
      1234      1242      1245      1246      1235      1234      1236      1237
      1235      1234      1242      1243      1235      1234      1242      1244
      1235      1234      1242      1245      1236      1234      1242      1243
      1236      1234      1242      1244      1236      1234      1242      1245
      1236      1237      1239      1240      1236      1237      1239      1241
      1236      1237      1239      1251      1237      1236      1234      1242
      1237      1239      1251      1252      1237      1239      1251      1253
      1237      1239      1251      1254      1238      1237      1239      1240
      1238      1237      1239      1241      1238      1237      1239      1251
      1239      1251      1254      1255      1239      1251      1254      1256
      1239      1251      1254      1257      1240      1239      1251      1252
      1240      1239      1251      1253      1240      1239      1251      1254
      1241      1239      1251      1252      1241      1239      1251      1253
      1241      1239      1251      1254      1242      1245      1246      1247
      1242      1245      1246      1248      1243      1242      1245      1246
      1244      1242      1245      1246      1245      1246      1248      1249
      1245      1246      1248      1250      1245      1246      1248      1298
      1246      1248      1298      1299      1246      1248      1298      1300
      1246      1248      1298      1301      1247      1246      1248      1249
      1247      1246      1248      1250      1247      1246      1248      1298
      1248      1298      1301      1302      1248      1298      1301      1303
      1248      1298      1301      1304      1249      1248      1298      1299
      1249      1248      1298      1300      1249      1248      1298      1301
      1250      1248      1298      1299      1250      1248      1298      1300
      1250      1248      1298      1301      1251      1254      1257      1258
      1251      1254      1257      1259      1251      1254      1257      1260
      1252      1251      1254      1255      1252      1251      1254      1256
      1252      1251      1254      1257      1253      1251      1254      1255
      1253      1251      1254      1256      1253      1251      1254      1257
      1254      1257      1260      1261      1254      1257      1260      1262
      1254      1257      1260      1263      1255      1254      1257      1258
      1255      1254      1257      1259      1255      1254      1257      1260
      1256      1254      1257      1258      1256      1254      1257      1259
      1256      1254      1257      1260      1257      1260      1263      1264
      1257      1260      1263      1265      1257      1260      1263      1266
      1258      1257      1260      1261      1258      1257      1260      1262
      1258      1257      1260      1263      1259      1257      1260      1261
      1259      1257      1260      1262      1259      1257      1260      1263
      1260      1263      1266      1267      1260      1263      1266      1268
      1260      1263      1266      1269      1261      1260      1263      1264
      1261      1260      1263      1265      1261      1260      1263      1266
      1262      1260      1263      1264      1262      1260      1263      1265
      1262      1260      1263      1266      1263      1266      1269      1270
      1263      1266      1269      1271      1264      1263      1266      1267
      1264      1263      1266      1268      1264      1263      1266      1269
      1265      1263      1266      1267      1265      1263      1266      1268
      1265      1263      1266      1269      1266      1269      1271      1272
      1266      1269      1271      1273      1267      1266      1269      1270
      1267      1266      1269      1271      1268      1266      1269      1270
      1268      1266      1269      1271      1269      1271      1273      1274
      1269      1271      1273      1275      1269      1271      1273      1276
      1270      1269      1271      1272      1270      1269      1271      1273
      1271      1273      1276      1277      1271      1273      1276      1278
      1271      1273      1276      1279      1272      1271      1273      1274
      1272      1271      1273      1275      1272      1271      1273      1276
      1273      1276      1279      1280      1273      1276      1279      1281
      1273      1276      1279      1282      1274      1273      1276      1277
      1274      1273      1276      1278      1274      1273      1276      1279
      1275      1273      1276      1277      1275      1273      1276      1278
      1275      1273      1276      1279      1276      1279      1282      1283
      1276      1279      1282      1284      1276      1279      1282      1285
      1277      1276      1279      1280      1277      1276      1279      1281
      1277      1276      1279      1282      1278      1276      1279      1280
      1278      1276      1279      1281      1278      1276      1279      1282
      1279      1282      1285      1286      1279      1282      1285      1287
      1279      1282      1285      1288      1280      1279      1282      1283
      1280      1279      1282      1284      1280      1279      1282      1285
      1281      1279      1282      1283      1281      1279      1282      1284
      1281      1279      1282      1285      1282      1285      1288      1289
      1282      1285      1288      1290      1282      1285      1288      1291
      1283      1282      1285      1286      1283      1282      1285      1287
      1283      1282      1285      1288      1284      1282      1285      1286
      1284      1282      1285      1287      1284      1282      1285      1288
      1285      1288      1291      1292      1285      1288      1291      1293
      1285      1288      1291      1294      1286      1285      1288      1289
      1286      1285      1288      1290      1286      1285      1288      1291
      1287      1285      1288      1289      1287      1285      1288      1290
      1287      1285      1288      1291      1288      1291      1294      1295
      1288      1291      1294      1296      1288      1291      1294      1297
      1289      1288      1291      1292      1289      1288      1291      1293
      1289      1288      1291      1294      1290      1288      1291      1292
      1290      1288      1291      1293      1290      1288      1291      1294
      1292      1291      1294      1295      1292      1291      1294      1296
      1292      1291      1294      1297      1293      1291      1294      1295
      1293      1291      1294      1296      1293      1291      1294      1297
      1298      1301      1304      1305      1298      1301      1304      1306
      1298      1301      1304      1307      1299      1298      1301      1302
      1299      1298      1301      1303      1299      1298      1301      1304
      1300      1298      1301      1302      1300      1298      1301      1303
      1300      1298      1301      1304      1301      1304      1307      1308
      1301      1304      1307      1309      1301      1304      1307      1310
      1302      1301      1304      1305      1302      1301      1304      1306
      1302      1301      1304      1307      1303      1301      1304      1305
      1303      1301      1304      1306      1303      1301      1304      1307
      1304      1307      1310      1311      1304      1307      1310      1312
      1304      1307      1310      1313      1305      1304      1307      1308
      1305      1304      1307      1309      1305      1304      1307      1310
      1306      1304      1307      1308      1306      1304      1307      1309
      1306      1304      1307      1310      1307      1310      1313      1314
      1307      1310      1313      1315      1307      1310      1313      1316
      1308      1307      1310      1311      1308      1307      1310      1312
      1308      1307      1310      1313      1309      1307      1310      1311
      1309      1307      1310      1312      1309      1307      1310      1313
      1310      1313      1316      1317      1310      1313      1316      1318
      1310      1313      1316      1319      1311      1310      1313      1314
      1311      1310      1313      1315      1311      1310      1313      1316
      1312      1310      1313      1314      1312      1310      1313      1315
      1312      1310      1313      1316      1313      1316      1319      1320
      1313      1316      1319      1321      1313      1316      1319      1322
      1314      1313      1316      1317      1314      1313      1316      1318
      1314      1313      1316      1319      1315      1313      1316      1317
      1315      1313      1316      1318      1315      1313      1316      1319
      1316      1319      1322      1323      1316      1319      1322      1324
      1316      1319      1322      1325      1317      1316      1319      1320
      1317      1316      1319      1321      1317      1316      1319      1322
      1318      1316      1319      1320      1318      1316      1319      1321
      1318      1316      1319      1322      1319      1322      1325      1326
      1319      1322      1325      1327      1319      1322      1325      1328
      1320      1319      1322      1323      1320      1319      1322      1324
      1320      1319      1322      1325      1321      1319      1322      1323
      1321      1319      1322      1324      1321      1319      1322      1325
      1322      1325      1328      1329      1322      1325      1328      1330
      1322      1325      1328      1331      1323      1322      1325      1326
      1323      1322      1325      1327      1323      1322      1325      1328
      1324      1322      1325      1326      1324      1322      1325      1327
      1324      1322      1325      1328      1325      1328      1331      1332
      1325      1328      1331      1333      1325      1328      1331      1334
      1326      1325      1328      1329      1326      1325      1328      1330
      1326      1325      1328      1331      1327      1325      1328      1329
      1327      1325      1328      1330      1327      1325      1328      1331
      1328      1331      1334      1335      1328      1331      1334      1336
      1328      1331      1334      1337      1329      1328      1331      1332
      1329      1328      1331      1333      1329      1328      1331      1334
      1330      1328      1331      1332      1330      1328      1331      1333
      1330      1328      1331      1334      1331      1334      1337      1338
      1331      1334      1337      1339      1331      1334      1337      1340
      1332      1331      1334      1335      1332      1331      1334      1336
      1332      1331      1334      1337      1333      1331      1334      1335
      1333      1331      1334      1336      1333      1331      1334      1337
      1335      1334      1337      1338      1335      1334      1337      1339
      1335      1334      1337      1340      1336      1334      1337      1338
      1336      1334      1337      1339      1336      1334      1337      1340
      1341      1342      1357      1358      1341      1342      1357      1359
      1341      1342      1357      1363      1342      1341      1345      1346
      1342      1341      1345      1347      1342      1341      1345      1348
      1342      1341      1349      1350      1342      1341      1349      1351
      1342      1341      1349      1352      1342      1341      1353      1354
      1342      1341      1353      1355      1342      1341      1353      1356
      1342      1357      1363      1360      1343      1342      1341      1345
      1343      1342      1341      1349      1343      1342      1341      1353
      1343      1342      1357      1358      1343      1342      1357      1359
      1343      1342      1357      1363      1344      1342      1341      1345
      1344      1342      1341      1349      1344      1342      1341      1353
      1344      1342      1357      1358      1344      1342      1357      1359
      1344      1342      1357      1363      1345      1341      1342      1357
      1345      1341      1349      1350      1345      1341      1349      1351
      1345      1341      1349      1352      1345      1341      1353      1354
      1345      1341      1353      1355      1345      1341      1353      1356
      1346      1345      1341      1349      1346      1345      1341      1353
      1347      1345      1341      1349      1347      1345      1341      1353
      1348      1345      1341      1349      1348      1345      1341      1353
      1349      1341      1342      1357      1349      1341      1353      1354
      1349      1341      1353      1355      1349      1341      1353      1356
      1350      1349      1341      1353      1351      1349      1341      1353
      1352      1349      1341      1353      1353      1341      1342      1357
      1357      1363      1360      1361      1357      1363      1360      1362
      1357      1363      1360      1364      1358      1357      1363      1360
      1359      1357      1363      1360      1360      1364      1365      1366
      1360      1364      1365      1367      1360      1364      1365      1368
      1361      1360      1364      1365      1362      1360      1364      1365
      1363      1360      1364      1365      1364      1365      1368      1369
      1364      1365      1368      1370      1364      1365      1368      1376
      1365      1368      1370      1371      1365      1368      1376      1377
      1365      1368      1376      1378      1365      1368      1376      1379
      1366      1365      1368      1369      1366      1365      1368      1370
      1366      1365      1368      1376      1367      1365      1368      1369
      1367      1365      1368      1370      1367      1365      1368      1376
      1368      1370      1371      1372      1368      1370      1371      1373
      1368      1376      1379      1380      1369      1368      1370      1371
      1369      1368      1376      1377      1369      1368      1376      1378
      1369      1368      1376      1379      1370      1368      1376      1377
      1370      1368      1376      1378      1370      1368      1376      1379
      1370      1371      1373      1374      1370      1371      1373      1375
      1370      1371      1373      1385      1371      1370      1368      1376
      1371      1373      1385      1386      1371      1373      1385      1387
      1371      1373      1385      1388      1372      1371      1373      1374
      1372      1371      1373      1375      1372      1371      1373      1385
      1373      1385      1388      1389      1373      1385      1388      1390
      1373      1385      1388      1391      1374      1373      1385      1386
      1374      1373      1385      1387      1374      1373      1385      1388
      1375      1373      1385      1386      1375      1373      1385      1387
      1375      1373      1385      1388      1376      1379      1380      1381
      1376      1379      1380      1382      1377      1376      1379      1380
      1378      1376      1379      1380      1379      1380      1382      1383
      1379      1380      1382      1384      1379      1380      1382      1432
      1380      1382      1432      1433      1380      1382      1432      1434
      1380      1382      1432      1435      1381      1380      1382      1383
      1381      1380      1382      1384      1381      1380      1382      1432
      1382      1432      1435      1436      1382      1432      1435      1437
      1382      1432      1435      1438      1383      1382      1432      1433
      1383      1382      1432      1434      1383      1382      1432      1435
      1384      1382      1432      1433      1384      1382      1432      1434
      1384      1382      1432      1435      1385      1388      1391      1392
      1385      1388      1391      1393      1385      1388      1391      1394
      1386      1385      1388      1389      1386      1385      1388      1390
      1386      1385      1388      1391      1387      1385      1388      1389
      1387      1385      1388      1390      1387      1385      1388      1391
      1388      1391      1394      1395      1388      1391      1394      1396
      1388      1391      1394      1397      1389      1388      1391      1392
      1389      1388      1391      1393      1389      1388      1391      1394
      1390      1388      1391      1392      1390      1388      1391      1393
      1390      1388      1391      1394      1391      1394      1397      1398
      1391      1394      1397      1399      1391      1394      1397      1400
      1392      1391      1394      1395      1392      1391      1394      1396
      1392      1391      1394      1397      1393      1391      1394      1395
      1393      1391      1394      1396      1393      1391      1394      1397
      1394      1397      1400      1401      1394      1397      1400      1402
      1394      1397      1400      1403      1395      1394      1397      1398
      1395      1394      1397      1399      1395      1394      1397      1400
      1396      1394      1397      1398      1396      1394      1397      1399
      1396      1394      1397      1400      1397      1400      1403      1404
      1397      1400      1403      1405      1398      1397      1400      1401
      1398      1397      1400      1402      1398      1397      1400      1403
      1399      1397      1400      1401      1399      1397      1400      1402
      1399      1397      1400      1403      1400      1403      1405      1406
      1400      1403      1405      1407      1401      1400      1403      1404
      1401      1400      1403      1405      1402      1400      1403      1404
      1402      1400      1403      1405      1403      1405      1407      1408
      1403      1405      1407      1409      1403      1405      1407      1410
      1404      1403      1405      1406      1404      1403      1405      1407
      1405      1407      1410      1411      1405      1407      1410      1412
      1405      1407      1410      1413      1406      1405      1407      1408
      1406      1405      1407      1409      1406      1405      1407      1410
      1407      1410      1413      1414      1407      1410      1413      1415
      1407      1410      1413      1416      1408      1407      1410      1411
      1408      1407      1410      1412      1408      1407      1410      1413
      1409      1407      1410      1411      1409      1407      1410      1412
      1409      1407      1410      1413      1410      1413      1416      1417
      1410      1413      1416      1418      1410      1413      1416      1419
      1411      1410      1413      1414      1411      1410      1413      1415
      1411      1410      1413      1416      1412      1410      1413      1414
      1412      1410      1413      1415      1412      1410      1413      1416
      1413      1416      1419      1420      1413      1416      1419      1421
      1413      1416      1419      1422      1414      1413      1416      1417
      1414      1413      1416      1418      1414      1413      1416      1419
      1415      1413      1416      1417      1415      1413      1416      1418
      1415      1413      1416      1419      1416      1419      1422      1423
      1416      1419      1422      1424      1416      1419      1422      1425
      1417      1416      1419      1420      1417      1416      1419      1421
      1417      1416      1419      1422      1418      1416      1419      1420
      1418      1416      1419      1421      1418      1416      1419      1422
      1419      1422      1425      1426      1419      1422      1425      1427
      1419      1422      1425      1428      1420      1419      1422      1423
      1420      1419      1422      1424      1420      1419      1422      1425
      1421      1419      1422      1423      1421      1419      1422      1424
      1421      1419      1422      1425      1422      1425      1428      1429
      1422      1425      1428      1430      1422      1425      1428      1431
      1423      1422      1425      1426      1423      1422      1425      1427
      1423      1422      1425      1428      1424      1422      1425      1426
      1424      1422      1425      1427      1424      1422      1425      1428
      1426      1425      1428      1429      1426      1425      1428      1430
      1426      1425      1428      1431      1427      1425      1428      1429
      1427      1425      1428      1430      1427      1425      1428      1431
      1432      1435      1438      1439      1432      1435      1438      1440
      1432      1435      1438      1441      1433      1432      1435      1436
      1433      1432      1435      1437      1433      1432      1435      1438
      1434      1432      1435      1436      1434      1432      1435      1437
      1434      1432      1435      1438      1435      1438      1441      1442
      1435      1438      1441      1443      1435      1438      1441      1444
      1436      1435      1438      1439      1436      1435      1438      1440
      1436      1435      1438      1441      1437      1435      1438      1439
      1437      1435      1438      1440      1437      1435      1438      1441
      1438      1441      1444      1445      1438      1441      1444      1446
      1438      1441      1444      1447      1439      1438      1441      1442
      1439      1438      1441      1443      1439      1438      1441      1444
      1440      1438      1441      1442      1440      1438      1441      1443
      1440      1438      1441      1444      1441      1444      1447      1448
      1441      1444      1447      1449      1441      1444      1447      1450
      1442      1441      1444      1445      1442      1441      1444      1446
      1442      1441      1444      1447      1443      1441      1444      1445
      1443      1441      1444      1446      1443      1441      1444      1447
      1444      1447      1450      1451      1444      1447      1450      1452
      1444      1447      1450      1453      1445      1444      1447      1448
      1445      1444      1447      1449      1445      1444      1447      1450
      1446      1444      1447      1448      1446      1444      1447      1449
      1446      1444      1447      1450      1447      1450      1453      1454
      1447      1450      1453      1455      1447      1450      1453      1456
      1448      1447      1450      1451      1448      1447      1450      1452
      1448      1447      1450      1453      1449      1447      1450      1451
      1449      1447      1450      1452      1449      1447      1450      1453
      1450      1453      1456      1457      1450      1453      1456      1458
      1450      1453      1456      1459      1451      1450      1453      1454
      1451      1450      1453      1455      1451      1450      1453      1456
      1452      1450      1453      1454      1452      1450      1453      1455
      1452      1450      1453      1456      1453      1456      1459      1460
      1453      1456      1459      1461      1453      1456      1459      1462
      1454      1453      1456      1457      1454      1453      1456      1458
      1454      1453      1456      1459      1455      1453      1456      1457
      1455      1453      1456      1458      1455      1453      1456      1459
      1456      1459      1462      1463      1456      1459      1462      1464
      1456      1459      1462      1465      1457      1456      1459      1460
      1457      1456      1459      1461      1457      1456      1459      1462
      1458      1456      1459      1460      1458      1456      1459      1461
      1458      1456      1459      1462      1459      1462      1465      1466
      1459      1462      1465      1467      1459      1462      1465      1468
      1460      1459      1462      1463      1460      1459      1462      1464
      1460      1459      1462      1465      1461      1459      1462      1463
      1461      1459      1462      1464      1461      1459      1462      1465
      1462      1465      1468      1469      1462      1465      1468      1470
      1462      1465      1468      1471      1463      1462      1465      1466
      1463      1462      1465      1467      1463      1462      1465      1468
      1464      1462      1465      1466      1464      1462      1465      1467
      1464      1462      1465      1468      1465      1468      1471      1472
      1465      1468      1471      1473      1465      1468      1471      1474
      1466      1465      1468      1469      1466      1465      1468      1470
      1466      1465      1468      1471      1467      1465      1468      1469
      1467      1465      1468      1470      1467      1465      1468      1471
      1469      1468      1471      1472      1469      1468      1471      1473
      1469      1468      1471      1474      1470      1468      1471      1472
      1470      1468      1471      1473      1470      1468      1471      1474
      1475      1476      1491      1492      1475      1476      1491      1493
      1475      1476      1491      1497      1476      1475      1479      1480
      1476      1475      1479      1481      1476      1475      1479      1482
      1476      1475      1483      1484      1476      1475      1483      1485
      1476      1475      1483      1486      1476      1475      1487      1488
      1476      1475      1487      1489      1476      1475      1487      1490
      1476      1491      1497      1494      1477      1476      1475      1479
      1477      1476      1475      1483      1477      1476      1475      1487
      1477      1476      1491      1492      1477      1476      1491      1493
      1477      1476      1491      1497      1478      1476      1475      1479
      1478      1476      1475      1483      1478      1476      1475      1487
      1478      1476      1491      1492      1478      1476      1491      1493
      1478      1476      1491      1497      1479      1475      1476      1491
      1479      1475      1483      1484      1479      1475      1483      1485
      1479      1475      1483      1486      1479      1475      1487      1488
      1479      1475      1487      1489      1479      1475      1487      1490
      1480      1479      1475      1483      1480      1479      1475      1487
      1481      1479      1475      1483      1481      1479      1475      1487
      1482      1479      1475      1483      1482      1479      1475      1487
      1483      1475      1476      1491      1483      1475      1487      1488
      1483      1475      1487      1489      1483      1475      1487      1490
      1484      1483      1475      1487      1485      1483      1475      1487
      1486      1483      1475      1487      1487      1475      1476      1491
      1491      1497      1494      1495      1491      1497      1494      1496
      1491      1497      1494      1498      1492      1491      1497      1494
      1493      1491      1497      1494      1494      1498      1499      1500
      1494      1498      1499      1501      1494      1498      1499      1502
      1495      1494      1498      1499      1496      1494      1498      1499
      1497      1494      1498      1499      1498      1499      1502      1503
      1498      1499      1502      1504      1498      1499      1502      1510
      1499      1502      1504      1505      1499      1502      1510      1511
      1499      1502      1510      1512      1499      1502      1510      1513
      1500      1499      1502      1503      1500      1499      1502      1504
      1500      1499      1502      1510      1501      1499      1502      1503
      1501      1499      1502      1504      1501      1499      1502      1510
      1502      1504      1505      1506      1502      1504      1505      1507
      1502      1510      1513      1514      1503      1502      1504      1505
      1503      1502      1510      1511      1503      1502      1510      1512
      1503      1502      1510      1513      1504      1502      1510      1511
      1504      1502      1510      1512      1504      1502      1510      1513
      1504      1505      1507      1508      1504      1505      1507      1509
      1504      1505      1507      1519      1505      1504      1502      1510
      1505      1507      1519      1520      1505      1507      1519      1521
      1505      1507      1519      1522      1506      1505      1507      1508
      1506      1505      1507      1509      1506      1505      1507      1519
      1507      1519      1522      1523      1507      1519      1522      1524
      1507      1519      1522      1525      1508      1507      1519      1520
      1508      1507      1519      1521      1508      1507      1519      1522
      1509      1507      1519      1520      1509      1507      1519      1521
      1509      1507      1519      1522      1510      1513      1514      1515
      1510      1513      1514      1516      1511      1510      1513      1514
      1512      1510      1513      1514      1513      1514      1516      1517
      1513      1514      1516      1518      1513      1514      1516      1566
      1514      1516      1566      1567      1514      1516      1566      1568
      1514      1516      1566      1569      1515      1514      1516      1517
      1515      1514      1516      1518      1515      1514      1516      1566
      1516      1566      1569      1570      1516      1566      1569      1571
      1516      1566      1569      1572      1517      1516      1566      1567
      1517      1516      1566      1568      1517      1516      1566      1569
      1518      1516      1566      1567      1518      1516      1566      1568
      1518      1516      1566      1569      1519      1522      1525      1526
      1519      1522      1525      1527      1519      1522      1525      1528
      1520      1519      1522      1523      1520      1519      1522      1524
      1520      1519      1522      1525      1521      1519      1522      1523
      1521      1519      1522      1524      1521      1519      1522      1525
      1522      1525      1528      1529      1522      1525      1528      1530
      1522      1525      1528      1531      1523      1522      1525      1526
      1523      1522      1525      1527      1523      1522      1525      1528
      1524      1522      1525      1526      1524      1522      1525      1527
      1524      1522      1525      1528      1525      1528      1531      1532
      1525      1528      1531      1533      1525      1528      1531      1534
      1526      1525      1528      1529      1526      1525      1528      1530
      1526      1525      1528      1531      1527      1525      1528      1529
      1527      1525      1528      1530      1527      1525      1528      1531
      1528      1531      1534      1535      1528      1531      1534      1536
      1528      1531      1534      1537      1529      1528      1531      1532
      1529      1528      1531      1533      1529      1528      1531      1534
      1530      1528      1531      1532      1530      1528      1531      1533
      1530      1528      1531      1534      1531      1534      1537      1538
      1531      1534      1537      1539      1532      1531      1534      1535
      1532      1531      1534      1536      1532      1531      1534      1537
      1533      1531      1534      1535      1533      1531      1534      1536
      1533      1531      1534      1537      1534      1537      1539      1540
      1534      1537      1539      1541      1535      1534      1537      1538
      1535      1534      1537      1539      1536      1534      1537      1538
      1536      1534      1537      1539      1537      1539      1541      1542
      1537      1539      1541      1543      1537      1539      1541      1544
      1538      1537      1539      1540      1538      1537      1539      1541
      1539      1541      1544      1545      1539      1541      1544      1546
      1539      1541      1544      1547      1540      1539      1541      1542
      1540      1539      1541      1543      1540      1539      1541      1544
      1541      1544      1547      1548      1541      1544      1547      1549
      1541      1544      1547      1550      1542      1541      1544      1545
      1542      1541      1544      1546      1542      1541      1544      1547
      1543      1541      1544      1545      1543      1541      1544      1546
      1543      1541      1544      1547      1544      1547      1550      1551
      1544      1547      1550      1552      1544      1547      1550      1553
      1545      1544      1547      1548      1545      1544      1547      1549
      1545      1544      1547      1550      1546      1544      1547      1548
      1546      1544      1547      1549      1546      1544      1547      1550
      1547      1550      1553      1554      1547      1550      1553      1555
      1547      1550      1553      1556      1548      1547      1550      1551
      1548      1547      1550      1552      1548      1547      1550      1553
      1549      1547      1550      1551      1549      1547      1550      1552
      1549      1547      1550      1553      1550      1553      1556      1557
      1550      1553      1556      1558      1550      1553      1556      1559
      1551      1550      1553      1554      1551      1550      1553      1555
      1551      1550      1553      1556      1552      1550      1553      1554
      1552      1550      1553      1555      1552      1550      1553      1556
      1553      1556      1559      1560      1553      1556      1559      1561
      1553      1556      1559      1562      1554      1553      1556      1557
      1554      1553      1556      1558      1554      1553      1556      1559
      1555      1553      1556      1557      1555      1553      1556      1558
      1555      1553      1556      1559      1556      1559      1562      1563
      1556      1559      1562      1564      1556      1559      1562      1565
      1557      1556      1559      1560      1557      1556      1559      1561
      1557      1556      1559      1562      1558      1556      1559      1560
      1558      1556      1559      1561      1558      1556      1559      1562
      1560      1559      1562      1563      1560      1559      1562      1564
      1560      1559      1562      1565      1561      1559      1562      1563
      1561      1559      1562      1564      1561      1559      1562      1565
      1566      1569      1572      1573      1566      1569      1572      1574
      1566      1569      1572      1575      1567      1566      1569      1570
      1567      1566      1569      1571      1567      1566      1569      1572
      1568      1566      1569      1570      1568      1566      1569      1571
      1568      1566      1569      1572      1569      1572      1575      1576
      1569      1572      1575      1577      1569      1572      1575      1578
      1570      1569      1572      1573      1570      1569      1572      1574
      1570      1569      1572      1575      1571      1569      1572      1573
      1571      1569      1572      1574      1571      1569      1572      1575
      1572      1575      1578      1579      1572      1575      1578      1580
      1572      1575      1578      1581      1573      1572      1575      1576
      1573      1572      1575      1577      1573      1572      1575      1578
      1574      1572      1575      1576      1574      1572      1575      1577
      1574      1572      1575      1578      1575      1578      1581      1582
      1575      1578      1581      1583      1575      1578      1581      1584
      1576      1575      1578      1579      1576      1575      1578      1580
      1576      1575      1578      1581      1577      1575      1578      1579
      1577      1575      1578      1580      1577      1575      1578      1581
      1578      1581      1584      1585      1578      1581      1584      1586
      1578      1581      1584      1587      1579      1578      1581      1582
      1579      1578      1581      1583      1579      1578      1581      1584
      1580      1578      1581      1582      1580      1578      1581      1583
      1580      1578      1581      1584      1581      1584      1587      1588
      1581      1584      1587      1589      1581      1584      1587      1590
      1582      1581      1584      1585      1582      1581      1584      1586
      1582      1581      1584      1587      1583      1581      1584      1585
      1583      1581      1584      1586      1583      1581      1584      1587
      1584      1587      1590      1591      1584      1587      1590      1592
      1584      1587      1590      1593      1585      1584      1587      1588
      1585      1584      1587      1589      1585      1584      1587      1590
      1586      1584      1587      1588      1586      1584      1587      1589
      1586      1584      1587      1590      1587      1590      1593      1594
      1587      1590      1593      1595      1587      1590      1593      1596
      1588      1587      1590      1591      1588      1587      1590      1592
      1588      1587      1590      1593      1589      1587      1590      1591
      1589      1587      1590      1592      1589      1587      1590      1593
      1590      1593      1596      1597      1590      1593      1596      1598
      1590      1593      1596      1599      1591      1590      1593      1594
      1591      1590      1593      1595      1591      1590      1593      1596
      1592      1590      1593      1594      1592      1590      1593      1595
      1592      1590      1593      1596      1593      1596      1599      1600
      1593      1596      1599      1601      1593      1596      1599      1602
      1594      1593      1596      1597      1594      1593      1596      1598
      1594      1593      1596      1599      1595      1593      1596      1597
      1595      1593      1596      1598      1595      1593      1596      1599
      1596      1599      1602      1603      1596      1599      1602      1604
      1596      1599      1602      1605      1597      1596      1599      1600
      1597      1596      1599      1601      1597      1596      1599      1602
      1598      1596      1599      1600      1598      1596      1599      1601
      1598      1596      1599      1602      1599      1602      1605      1606
      1599      1602      1605      1607      1599      1602      1605      1608
      1600      1599      1602      1603      1600      1599      1602      1604
      1600      1599      1602      1605      1601      1599      1602      1603
      1601      1599      1602      1604      1601      1599      1602      1605
      1603      1602      1605      1606      1603      1602      1605      1607
      1603      1602      1605      1608      1604      1602      1605      1606
      1604      1602      1605      1607      1604      1602      1605      1608
      1609      1610      1625      1626      1609      1610      1625      1627
      1609      1610      1625      1631      1610      1609      1613      1614
      1610      1609      1613      1615      1610      1609      1613      1616
      1610      1609      1617      1618      1610      1609      1617      1619
      1610      1609      1617      1620      1610      1609      1621      1622
      1610      1609      1621      1623      1610      1609      1621      1624
      1610      1625      1631      1628      1611      1610      1609      1613
      1611      1610      1609      1617      1611      1610      1609      1621
      1611      1610      1625      1626      1611      1610      1625      1627
      1611      1610      1625      1631      1612      1610      1609      1613
      1612      1610      1609      1617      1612      1610      1609      1621
      1612      1610      1625      1626      1612      1610      1625      1627
      1612      1610      1625      1631      1613      1609      1610      1625
      1613      1609      1617      1618      1613      1609      1617      1619
      1613      1609      1617      1620      1613      1609      1621      1622
      1613      1609      1621      1623      1613      1609      1621      1624
      1614      1613      1609      1617      1614      1613      1609      1621
      1615      1613      1609      1617      1615      1613      1609      1621
      1616      1613      1609      1617      1616      1613      1609      1621
      1617      1609      1610      1625      1617      1609      1621      1622
      1617      1609      1621      1623      1617      1609      1621      1624
      1618      1617      1609      1621      1619      1617      1609      1621
      1620      1617      1609      1621      1621      1609      1610      1625
      1625      1631      1628      1629      1625      1631      1628      1630
      1625      1631      1628      1632      1626      1625      1631      1628
      1627      1625      1631      1628      1628      1632      1633      1634
      1628      1632      1633      1635      1628      1632      1633      1636
      1629      1628      1632      1633      1630      1628      1632      1633
      1631      1628      1632      1633      1632      1633      1636      1637
      1632      1633      1636      1638      1632      1633      1636      1644
      1633      1636      1638      1639      1633      1636      1644      1645
      1633      1636      1644      1646      1633      1636      1644      1647
      1634      1633      1636      1637      1634      1633      1636      1638
      1634      1633      1636      1644      1635      1633      1636      1637
      1635      1633      1636      1638      1635      1633      1636      1644
      1636      1638      1639      1640      1636      1638      1639      1641
      1636      1644      1647      1648      1637      1636      1638      1639
      1637      1636      1644      1645      1637      1636      1644      1646
      1637      1636      1644      1647      1638      1636      1644      1645
      1638      1636      1644      1646      1638      1636      1644      1647
      1638      1639      1641      1642      1638      1639      1641      1643
      1638      1639      1641      1653      1639      1638      1636      1644
      1639      1641      1653      1654      1639      1641      1653      1655
      1639      1641      1653      1656      1640      1639      1641      1642
      1640      1639      1641      1643      1640      1639      1641      1653
      1641      1653      1656      1657      1641      1653      1656      1658
      1641      1653      1656      1659      1642      1641      1653      1654
      1642      1641      1653      1655      1642      1641      1653      1656
      1643      1641      1653      1654      1643      1641      1653      1655
      1643      1641      1653      1656      1644      1647      1648      1649
      1644      1647      1648      1650      1645      1644      1647      1648
      1646      1644      1647      1648      1647      1648      1650      1651
      1647      1648      1650      1652      1647      1648      1650      1700
      1648      1650      1700      1701      1648      1650      1700      1702
      1648      1650      1700      1703      1649      1648      1650      1651
      1649      1648      1650      1652      1649      1648      1650      1700
      1650      1700      1703      1704      1650      1700      1703      1705
      1650      1700      1703      1706      1651      1650      1700      1701
      1651      1650      1700      1702      1651      1650      1700      1703
      1652      1650      1700      1701      1652      1650      1700      1702
      1652      1650      1700      1703      1653      1656      1659      1660
      1653      1656      1659      1661      1653      1656      1659      1662
      1654      1653      1656      1657      1654      1653      1656      1658
      1654      1653      1656      1659      1655      1653      1656      1657
      1655      1653      1656      1658      1655      1653      1656      1659
      1656      1659      1662      1663      1656      1659      1662      1664
      1656      1659      1662      1665      1657      1656      1659      1660
      1657      1656      1659      1661      1657      1656      1659      1662
      1658      1656      1659      1660      1658      1656      1659      1661
      1658      1656      1659      1662      1659      1662      1665      1666
      1659      1662      1665      1667      1659      1662      1665      1668
      1660      1659      1662      1663      1660      1659      1662      1664
      1660      1659      1662      1665      1661      1659      1662      1663
      1661      1659      1662      1664      1661      1659      1662      1665
      1662      1665      1668      1669      1662      1665      1668      1670
      1662      1665      1668      1671      1663      1662      1665      1666
      1663      1662      1665      1667      1663      1662      1665      1668
      1664      1662      1665      1666      1664      1662      1665      1667
      1664      1662      1665      1668      1665      1668      1671      1672
      1665      1668      1671      1673      1666      1665      1668      1669
      1666      1665      1668      1670      1666      1665      1668      1671
      1667      1665      1668      1669      1667      1665      1668      1670
      1667      1665      1668      1671      1668      1671      1673      1674
      1668      1671      1673      1675      1669      1668      1671      1672
      1669      1668      1671      1673      1670      1668      1671      1672
      1670      1668      1671      1673      1671      1673      1675      1676
      1671      1673      1675      1677      1671      1673      1675      1678
      1672      1671      1673      1674      1672      1671      1673      1675
      1673      1675      1678      1679      1673      1675      1678      1680
      1673      1675      1678      1681      1674      1673      1675      1676
      1674      1673      1675      1677      1674      1673      1675      1678
      1675      1678      1681      1682      1675      1678      1681      1683
      1675      1678      1681      1684      1676      1675      1678      1679
      1676      1675      1678      1680      1676      1675      1678      1681
      1677      1675      1678      1679      1677      1675      1678      1680
      1677      1675      1678      1681      1678      1681      1684      1685
      1678      1681      1684      1686      1678      1681      1684      1687
      1679      1678      1681      1682      1679      1678      1681      1683
      1679      1678      1681      1684      1680      1678      1681      1682
      1680      1678      1681      1683      1680      1678      1681      1684
      1681      1684      1687      1688      1681      1684      1687      1689
      1681      1684      1687      1690      1682      1681      1684      1685
      1682      1681      1684      1686      1682      1681      1684      1687
      1683      1681      1684      1685      1683      1681      1684      1686
      1683      1681      1684      1687      1684      1687      1690      1691
      1684      1687      1690      1692      1684      1687      1690      1693
      1685      1684      1687      1688      1685      1684      1687      1689
      1685      1684      1687      1690      1686      1684      1687      1688
      1686      1684      1687      1689      1686      1684      1687      1690
      1687      1690      1693      1694      1687      1690      1693      1695
      1687      1690      1693      1696      1688      1687      1690      1691
      1688      1687      1690      1692      1688      1687      1690      1693
      1689      1687      1690      1691      1689      1687      1690      1692
      1689      1687      1690      1693      1690      1693      1696      1697
      1690      1693      1696      1698      1690      1693      1696      1699
      1691      1690      1693      1694      1691      1690      1693      1695
      1691      1690      1693      1696      1692      1690      1693      1694
      1692      1690      1693      1695      1692      1690      1693      1696
      1694      1693      1696      1697      1694      1693      1696      1698
      1694      1693      1696      1699      1695      1693      1696      1697
      1695      1693      1696      1698      1695      1693      1696      1699
      1700      1703      1706      1707      1700      1703      1706      1708
      1700      1703      1706      1709      1701      1700      1703      1704
      1701      1700      1703      1705      1701      1700      1703      1706
      1702      1700      1703      1704      1702      1700      1703      1705
      1702      1700      1703      1706      1703      1706      1709      1710
      1703      1706      1709      1711      1703      1706      1709      1712
      1704      1703      1706      1707      1704      1703      1706      1708
      1704      1703      1706      1709      1705      1703      1706      1707
      1705      1703      1706      1708      1705      1703      1706      1709
      1706      1709      1712      1713      1706      1709      1712      1714
      1706      1709      1712      1715      1707      1706      1709      1710
      1707      1706      1709      1711      1707      1706      1709      1712
      1708      1706      1709      1710      1708      1706      1709      1711
      1708      1706      1709      1712      1709      1712      1715      1716
      1709      1712      1715      1717      1709      1712      1715      1718
      1710      1709      1712      1713      1710      1709      1712      1714
      1710      1709      1712      1715      1711      1709      1712      1713
      1711      1709      1712      1714      1711      1709      1712      1715
      1712      1715      1718      1719      1712      1715      1718      1720
      1712      1715      1718      1721      1713      1712      1715      1716
      1713      1712      1715      1717      1713      1712      1715      1718
      1714      1712      1715      1716      1714      1712      1715      1717
      1714      1712      1715      1718      1715      1718      1721      1722
      1715      1718      1721      1723      1715      1718      1721      1724
      1716      1715      1718      1719      1716      1715      1718      1720
      1716      1715      1718      1721      1717      1715      1718      1719
      1717      1715      1718      1720      1717      1715      1718      1721
      1718      1721      1724      1725      1718      1721      1724      1726
      1718      1721      1724      1727      1719      1718      1721      1722
      1719      1718      1721      1723      1719      1718      1721      1724
      1720      1718      1721      1722      1720      1718      1721      1723
      1720      1718      1721      1724      1721      1724      1727      1728
      1721      1724      1727      1729      1721      1724      1727      1730
      1722      1721      1724      1725      1722      1721      1724      1726
      1722      1721      1724      1727      1723      1721      1724      1725
      1723      1721      1724      1726      1723      1721      1724      1727
      1724      1727      1730      1731      1724      1727      1730      1732
      1724      1727      1730      1733      1725      1724      1727      1728
      1725      1724      1727      1729      1725      1724      1727      1730
      1726      1724      1727      1728      1726      1724      1727      1729
      1726      1724      1727      1730      1727      1730      1733      1734
      1727      1730      1733      1735      1727      1730      1733      1736
      1728      1727      1730      1731      1728      1727      1730      1732
      1728      1727      1730      1733      1729      1727      1730      1731
      1729      1727      1730      1732      1729      1727      1730      1733
      1730      1733      1736      1737      1730      1733      1736      1738
      1730      1733      1736      1739      1731      1730      1733      1734
      1731      1730      1733      1735      1731      1730      1733      1736
      1732      1730      1733      1734      1732      1730      1733      1735
      1732      1730      1733      1736      1733      1736      1739      1740
      1733      1736      1739      1741      1733      1736      1739      1742
      1734      1733      1736      1737      1734      1733      1736      1738
      1734      1733      1736      1739      1735      1733      1736      1737
      1735      1733      1736      1738      1735      1733      1736      1739
      1737      1736      1739      1740      1737      1736      1739      1741
      1737      1736      1739      1742      1738      1736      1739      1740
      1738      1736      1739      1741      1738      1736      1739      1742
      1743      1744      1759      1760      1743      1744      1759      1761
      1743      1744      1759      1765      1744      1743      1747      1748
      1744      1743      1747      1749      1744      1743      1747      1750
      1744      1743      1751      1752      1744      1743      1751      1753
      1744      1743      1751      1754      1744      1743      1755      1756
      1744      1743      1755      1757      1744      1743      1755      1758
      1744      1759      1765      1762      1745      1744      1743      1747
      1745      1744      1743      1751      1745      1744      1743      1755
      1745      1744      1759      1760      1745      1744      1759      1761
      1745      1744      1759      1765      1746      1744      1743      1747
      1746      1744      1743      1751      1746      1744      1743      1755
      1746      1744      1759      1760      1746      1744      1759      1761
      1746      1744      1759      1765      1747      1743      1744      1759
      1747      1743      1751      1752      1747      1743      1751      1753
      1747      1743      1751      1754      1747      1743      1755      1756
      1747      1743      1755      1757      1747      1743      1755      1758
      1748      1747      1743      1751      1748      1747      1743      1755
      1749      1747      1743      1751      1749      1747      1743      1755
      1750      1747      1743      1751      1750      1747      1743      1755
      1751      1743      1744      1759      1751      1743      1755      1756
      1751      1743      1755      1757      1751      1743      1755      1758
      1752      1751      1743      1755      1753      1751      1743      1755
      1754      1751      1743      1755      1755      1743      1744      1759
      1759      1765      1762      1763      1759      1765      1762      1764
      1759      1765      1762      1766      1760      1759      1765      1762
      1761      1759      1765      1762      1762      1766      1767      1768
      1762      1766      1767      1769      1762      1766      1767      1770
      1763      1762      1766      1767      1764      1762      1766      1767
      1765      1762      1766      1767      1766      1767      1770      1771
      1766      1767      1770      1772      1766      1767      1770      1778
      1767      1770      1772      1773      1767      1770      1778      1779
      1767      1770      1778      1780      1767      1770      1778      1781
      1768      1767      1770      1771      1768      1767      1770      1772
      1768      1767      1770      1778      1769      1767      1770      1771
      1769      1767      1770      1772      1769      1767      1770      1778
      1770      1772      1773      1774      1770      1772      1773      1775
      1770      1778      1781      1782      1771      1770      1772      1773
      1771      1770      1778      1779      1771      1770      1778      1780
      1771      1770      1778      1781      1772      1770      1778      1779
      1772      1770      1778      1780      1772      1770      1778      1781
      1772      1773      1775      1776      1772      1773      1775      1777
      1772      1773      1775      1787      1773      1772      1770      1778
      1773      1775      1787      1788      1773      1775      1787      1789
      1773      1775      1787      1790      1774      1773      1775      1776
      1774      1773      1775      1777      1774      1773      1775      1787
      1775      1787      1790      1791      1775      1787      1790      1792
      1775      1787      1790      1793      1776      1775      1787      1788
      1776      1775      1787      1789      1776      1775      1787      1790
      1777      1775      1787      1788      1777      1775      1787      1789
      1777      1775      1787      1790      1778      1781      1782      1783
      1778      1781      1782      1784      1779      1778      1781      1782
      1780      1778      1781      1782      1781      1782      1784      1785
      1781      1782      1784      1786      1781      1782      1784      1834
      1782      1784      1834      1835      1782      1784      1834      1836
      1782      1784      1834      1837      1783      1782      1784      1785
      1783      1782      1784      1786      1783      1782      1784      1834
      1784      1834      1837      1838      1784      1834      1837      1839
      1784      1834      1837      1840      1785      1784      1834      1835
      1785      1784      1834      1836      1785      1784      1834      1837
      1786      1784      1834      1835      1786      1784      1834      1836
      1786      1784      1834      1837      1787      1790      1793      1794
      1787      1790      1793      1795      1787      1790      1793      1796
      1788      1787      1790      1791      1788      1787      1790      1792
      1788      1787      1790      1793      1789      1787      1790      1791
      1789      1787      1790      1792      1789      1787      1790      1793
      1790      1793      1796      1797      1790      1793      1796      1798
      1790      1793      1796      1799      1791      1790      1793      1794
      1791      1790      1793      1795      1791      1790      1793      1796
      1792      1790      1793      1794      1792      1790      1793      1795
      1792      1790      1793      1796      1793      1796      1799      1800
      1793      1796      1799      1801      1793      1796      1799      1802
      1794      1793      1796      1797      1794      1793      1796      1798
      1794      1793      1796      1799      1795      1793      1796      1797
      1795      1793      1796      1798      1795      1793      1796      1799
      1796      1799      1802      1803      1796      1799      1802      1804
      1796      1799      1802      1805      1797      1796      1799      1800
      1797      1796      1799      1801      1797      1796      1799      1802
      1798      1796      1799      1800      1798      1796      1799      1801
      1798      1796      1799      1802      1799      1802      1805      1806
      1799      1802      1805      1807      1800      1799      1802      1803
      1800      1799      1802      1804      1800      1799      1802      1805
      1801      1799      1802      1803      1801      1799      1802      1804
      1801      1799      1802      1805      1802      1805      1807      1808
      1802      1805      1807      1809      1803      1802      1805      1806
      1803      1802      1805      1807      1804      1802      1805      1806
      1804      1802      1805      1807      1805      1807      1809      1810
      1805      1807      1809      1811      1805      1807      1809      1812
      1806      1805      1807      1808      1806      1805      1807      1809
      1807      1809      1812      1813      1807      1809      1812      1814
      1807      1809      1812      1815      1808      1807      1809      1810
      1808      1807      1809      1811      1808      1807      1809      1812
      1809      1812      1815      1816      1809      1812      1815      1817
      1809      1812      1815      1818      1810      1809      1812      1813
      1810      1809      1812      1814      1810      1809      1812      1815
      1811      1809      1812      1813      1811      1809      1812      1814
      1811      1809      1812      1815      1812      1815      1818      1819
      1812      1815      1818      1820      1812      1815      1818      1821
      1813      1812      1815      1816      1813      1812      1815      1817
      1813      1812      1815      1818      1814      1812      1815      1816
      1814      1812      1815      1817      1814      1812      1815      1818
      1815      1818      1821      1822      1815      1818      1821      1823
      1815      1818      1821      1824      1816      1815      1818      1819
      1816      1815      1818      1820      1816      1815      1818      1821
      1817      1815      1818      1819      1817      1815      1818      1820
      1817      1815      1818      1821      1818      1821      1824      1825
      1818      1821      1824      1826      1818      1821      1824      1827
      1819      1818      1821      1822      1819      1818      1821      1823
      1819      1818      1821      1824      1820      1818      1821      1822
      1820      1818      1821      1823      1820      1818      1821      1824
      1821      1824      1827      1828      1821      1824      1827      1829
      1821      1824      1827      1830      1822      1821      1824      1825
      1822      1821      1824      1826      1822      1821      1824      1827
      1823      1821      1824      1825      1823      1821      1824      1826
      1823      1821      1824      1827      1824      1827      1830      1831
      1824      1827      1830      1832      1824      1827      1830      1833
      1825      1824      1827      1828      1825      1824      1827      1829
      1825      1824      1827      1830      1826      1824      1827      1828
      1826      1824      1827      1829      1826      1824      1827      1830
      1828      1827      1830      1831      1828      1827      1830      1832
      1828      1827      1830      1833      1829      1827      1830      1831
      1829      1827      1830      1832      1829      1827      1830      1833
      1834      1837      1840      1841      1834      1837      1840      1842
      1834      1837      1840      1843      1835      1834      1837      1838
      1835      1834      1837      1839      1835      1834      1837      1840
      1836      1834      1837      1838      1836      1834      1837      1839
      1836      1834      1837      1840      1837      1840      1843      1844
      1837      1840      1843      1845      1837      1840      1843      1846
      1838      1837      1840      1841      1838      1837      1840      1842
      1838      1837      1840      1843      1839      1837      1840      1841
      1839      1837      1840      1842      1839      1837      1840      1843
      1840      1843      1846      1847      1840      1843      1846      1848
      1840      1843      1846      1849      1841      1840      1843      1844
      1841      1840      1843      1845      1841      1840      1843      1846
      1842      1840      1843      1844      1842      1840      1843      1845
      1842      1840      1843      1846      1843      1846      1849      1850
      1843      1846      1849      1851      1843      1846      1849      1852
      1844      1843      1846      1847      1844      1843      1846      1848
      1844      1843      1846      1849      1845      1843      1846      1847
      1845      1843      1846      1848      1845      1843      1846      1849
      1846      1849      1852      1853      1846      1849      1852      1854
      1846      1849      1852      1855      1847      1846      1849      1850
      1847      1846      1849      1851      1847      1846      1849      1852
      1848      1846      1849      1850      1848      1846      1849      1851
      1848      1846      1849      1852      1849      1852      1855      1856
      1849      1852      1855      1857      1849      1852      1855      1858
      1850      1849      1852      1853      1850      1849      1852      1854
      1850      1849      1852      1855      1851      1849      1852      1853
      1851      1849      1852      1854      1851      1849      1852      1855
      1852      1855      1858      1859      1852      1855      1858      1860
      1852      1855      1858      1861      1853      1852      1855      1856
      1853      1852      1855      1857      1853      1852      1855      1858
      1854      1852      1855      1856      1854      1852      1855      1857
      1854      1852      1855      1858      1855      1858      1861      1862
      1855      1858      1861      1863      1855      1858      1861      1864
      1856      1855      1858      1859      1856      1855      1858      1860
      1856      1855      1858      1861      1857      1855      1858      1859
      1857      1855      1858      1860      1857      1855      1858      1861
      1858      1861      1864      1865      1858      1861      1864      1866
      1858      1861      1864      1867      1859      1858      1861      1862
      1859      1858      1861      1863      1859      1858      1861      1864
      1860      1858      1861      1862      1860      1858      1861      1863
      1860      1858      1861      1864      1861      1864      1867      1868
      1861      1864      1867      1869      1861      1864      1867      1870
      1862      1861      1864      1865      1862      1861      1864      1866
      1862      1861      1864      1867      1863      1861      1864      1865
      1863      1861      1864      1866      1863      1861      1864      1867
      1864      1867      1870      1871      1864      1867      1870      1872
      1864      1867      1870      1873      1865      1864      1867      1868
      1865      1864      1867      1869      1865      1864      1867      1870
      1866      1864      1867      1868      1866      1864      1867      1869
      1866      1864      1867      1870      1867      1870      1873      1874
      1867      1870      1873      1875      1867      1870      1873      1876
      1868      1867      1870      1871      1868      1867      1870      1872
      1868      1867      1870      1873      1869      1867      1870      1871
      1869      1867      1870      1872      1869      1867      1870      1873
      1871      1870      1873      1874      1871      1870      1873      1875
      1871      1870      1873      1876      1872      1870      1873      1874
      1872      1870      1873      1875      1872      1870      1873      1876
      1877      1878      1893      1894      1877      1878      1893      1895
      1877      1878      1893      1899      1878      1877      1881      1882
      1878      1877      1881      1883      1878      1877      1881      1884
      1878      1877      1885      1886      1878      1877      1885      1887
      1878      1877      1885      1888      1878      1877      1889      1890
      1878      1877      1889      1891      1878      1877      1889      1892
      1878      1893      1899      1896      1879      1878      1877      1881
      1879      1878      1877      1885      1879      1878      1877      1889
      1879      1878      1893      1894      1879      1878      1893      1895
      1879      1878      1893      1899      1880      1878      1877      1881
      1880      1878      1877      1885      1880      1878      1877      1889
      1880      1878      1893      1894      1880      1878      1893      1895
      1880      1878      1893      1899      1881      1877      1878      1893
      1881      1877      1885      1886      1881      1877      1885      1887
      1881      1877      1885      1888      1881      1877      1889      1890
      1881      1877      1889      1891      1881      1877      1889      1892
      1882      1881      1877      1885      1882      1881      1877      1889
      1883      1881      1877      1885      1883      1881      1877      1889
      1884      1881      1877      1885      1884      1881      1877      1889
      1885      1877      1878      1893      1885      1877      1889      1890
      1885      1877      1889      1891      1885      1877      1889      1892
      1886      1885      1877      1889      1887      1885      1877      1889
      1888      1885      1877      1889      1889      1877      1878      1893
      1893      1899      1896      1897      1893      1899      1896      1898
      1893      1899      1896      1900      1894      1893      1899      1896
      1895      1893      1899      1896      1896      1900      1901      1902
      1896      1900      1901      1903      1896      1900      1901      1904
      1897      1896      1900      1901      1898      1896      1900      1901
      1899      1896      1900      1901      1900      1901      1904      1905
      1900      1901      1904      1906      1900      1901      1904      1912
      1901      1904      1906      1907      1901      1904      1912      1913
      1901      1904      1912      1914      1901      1904      1912      1915
      1902      1901      1904      1905      1902      1901      1904      1906
      1902      1901      1904      1912      1903      1901      1904      1905
      1903      1901      1904      1906      1903      1901      1904      1912
      1904      1906      1907      1908      1904      1906      1907      1909
      1904      1912      1915      1916      1905      1904      1906      1907
      1905      1904      1912      1913      1905      1904      1912      1914
      1905      1904      1912      1915      1906      1904      1912      1913
      1906      1904      1912      1914      1906      1904      1912      1915
      1906      1907      1909      1910      1906      1907      1909      1911
      1906      1907      1909      1921      1907      1906      1904      1912
      1907      1909      1921      1922      1907      1909      1921      1923
      1907      1909      1921      1924      1908      1907      1909      1910
      1908      1907      1909      1911      1908      1907      1909      1921
      1909      1921      1924      1925      1909      1921      1924      1926
      1909      1921      1924      1927      1910      1909      1921      1922
      1910      1909      1921      1923      1910      1909      1921      1924
      1911      1909      1921      1922      1911      1909      1921      1923
      1911      1909      1921      1924      1912      1915      1916      1917
      1912      1915      1916      1918      1913      1912      1915      1916
      1914      1912      1915      1916      1915      1916      1918      1919
      1915      1916      1918      1920      1915      1916      1918      1968
      1916      1918      1968      1969      1916      1918      1968      1970
      1916      1918      1968      1971      1917      1916      1918      1919
      1917      1916      1918      1920      1917      1916      1918      1968
      1918      1968      1971      1972      1918      1968      1971      1973
      1918      1968      1971      1974      1919      1918      1968      1969
      1919      1918      1968      1970      1919      1918      1968      1971
      1920      1918      1968      1969      1920      1918      1968      1970
      1920      1918      1968      1971      1921      1924      1927      1928
      1921      1924      1927      1929      1921      1924      1927      1930
      1922      1921      1924      1925      1922      1921      1924      1926
      1922      1921      1924      1927      1923      1921      1924      1925
      1923      1921      1924      1926      1923      1921      1924      1927
      1924      1927      1930      1931      1924      1927      1930      1932
      1924      1927      1930      1933      1925      1924      1927      1928
      1925      1924      1927      1929      1925      1924      1927      1930
      1926      1924      1927      1928      1926      1924      1927      1929
      1926      1924      1927      1930      1927      1930      1933      1934
      1927      1930      1933      1935      1927      1930      1933      1936
      1928      1927      1930      1931      1928      1927      1930      1932
      1928      1927      1930      1933      1929      1927      1930      1931
      1929      1927      1930      1932      1929      1927      1930      1933
      1930      1933      1936      1937      1930      1933      1936      1938
      1930      1933      1936      1939      1931      1930      1933      1934
      1931      1930      1933      1935      1931      1930      1933      1936
      1932      1930      1933      1934      1932      1930      1933      1935
      1932      1930      1933      1936      1933      1936      1939      1940
      1933      1936      1939      1941      1934      1933      1936      1937
      1934      1933      1936      1938      1934      1933      1936      1939
      1935      1933      1936      1937      1935      1933      1936      1938
      1935      1933      1936      1939      1936      1939      1941      1942
      1936      1939      1941      1943      1937      1936      1939      1940
      1937      1936      1939      1941      1938      1936      1939      1940
      1938      1936      1939      1941      1939      1941      1943      1944
      1939      1941      1943      1945      1939      1941      1943      1946
      1940      1939      1941      1942      1940      1939      1941      1943
      1941      1943      1946      1947      1941      1943      1946      1948
      1941      1943      1946      1949      1942      1941      1943      1944
      1942      1941      1943      1945      1942      1941      1943      1946
      1943      1946      1949      1950      1943      1946      1949      1951
      1943      1946      1949      1952      1944      1943      1946      1947
      1944      1943      1946      1948      1944      1943      1946      1949
      1945      1943      1946      1947      1945      1943      1946      1948
      1945      1943      1946      1949      1946      1949      1952      1953
      1946      1949      1952      1954      1946      1949      1952      1955
      1947      1946      1949      1950      1947      1946      1949      1951
      1947      1946      1949      1952      1948      1946      1949      1950
      1948      1946      1949      1951      1948      1946      1949      1952
      1949      1952      1955      1956      1949      1952      1955      1957
      1949      1952      1955      1958      1950      1949      1952      1953
      1950      1949      1952      1954      1950      1949      1952      1955
      1951      1949      1952      1953      1951      1949      1952      1954
      1951      1949      1952      1955      1952      1955      1958      1959
      1952      1955      1958      1960      1952      1955      1958      1961
      1953      1952      1955      1956      1953      1952      1955      1957
      1953      1952      1955      1958      1954      1952      1955      1956
      1954      1952      1955      1957      1954      1952      1955      1958
      1955      1958      1961      1962      1955      1958      1961      1963
      1955      1958      1961      1964      1956      1955      1958      1959
      1956      1955      1958      1960      1956      1955      1958      1961
      1957      1955      1958      1959      1957      1955      1958      1960
      1957      1955      1958      1961      1958      1961      1964      1965
      1958      1961      1964      1966      1958      1961      1964      1967
      1959      1958      1961      1962      1959      1958      1961      1963
      1959      1958      1961      1964      1960      1958      1961      1962
      1960      1958      1961      1963      1960      1958      1961      1964
      1962      1961      1964      1965      1962      1961      1964      1966
      1962      1961      1964      1967      1963      1961      1964      1965
      1963      1961      1964      1966      1963      1961      1964      1967
      1968      1971      1974      1975      1968      1971      1974      1976
      1968      1971      1974      1977      1969      1968      1971      1972
      1969      1968      1971      1973      1969      1968      1971      1974
      1970      1968      1971      1972      1970      1968      1971      1973
      1970      1968      1971      1974      1971      1974      1977      1978
      1971      1974      1977      1979      1971      1974      1977      1980
      1972      1971      1974      1975      1972      1971      1974      1976
      1972      1971      1974      1977      1973      1971      1974      1975
      1973      1971      1974      1976      1973      1971      1974      1977
      1974      1977      1980      1981      1974      1977      1980      1982
      1974      1977      1980      1983      1975      1974      1977      1978
      1975      1974      1977      1979      1975      1974      1977      1980
      1976      1974      1977      1978      1976      1974      1977      1979
      1976      1974      1977      1980      1977      1980      1983      1984
      1977      1980      1983      1985      1977      1980      1983      1986
      1978      1977      1980      1981      1978      1977      1980      1982
      1978      1977      1980      1983      1979      1977      1980      1981
      1979      1977      1980      1982      1979      1977      1980      1983
      1980      1983      1986      1987      1980      1983      1986      1988
      1980      1983      1986      1989      1981      1980      1983      1984
      1981      1980      1983      1985      1981      1980      1983      1986
      1982      1980      1983      1984      1982      1980      1983      1985
      1982      1980      1983      1986      1983      1986      1989      1990
      1983      1986      1989      1991      1983      1986      1989      1992
      1984      1983      1986      1987      1984      1983      1986      1988
      1984      1983      1986      1989      1985      1983      1986      1987
      1985      1983      1986      1988      1985      1983      1986      1989
      1986      1989      1992      1993      1986      1989      1992      1994
      1986      1989      1992      1995      1987      1986      1989      1990
      1987      1986      1989      1991      1987      1986      1989      1992
      1988      1986      1989      1990      1988      1986      1989      1991
      1988      1986      1989      1992      1989      1992      1995      1996
      1989      1992      1995      1997      1989      1992      1995      1998
      1990      1989      1992      1993      1990      1989      1992      1994
      1990      1989      1992      1995      1991      1989      1992      1993
      1991      1989      1992      1994      1991      1989      1992      1995
      1992      1995      1998      1999      1992      1995      1998      2000
      1992      1995      1998      2001      1993      1992      1995      1996
      1993      1992      1995      1997      1993      1992      1995      1998
      1994      1992      1995      1996      1994      1992      1995      1997
      1994      1992      1995      1998      1995      1998      2001      2002
      1995      1998      2001      2003      1995      1998      2001      2004
      1996      1995      1998      1999      1996      1995      1998      2000
      1996      1995      1998      2001      1997      1995      1998      1999
      1997      1995      1998      2000      1997      1995      1998      2001
      1998      2001      2004      2005      1998      2001      2004      2006
      1998      2001      2004      2007      1999      1998      2001      2002
      1999      1998      2001      2003      1999      1998      2001      2004
      2000      1998      2001      2002      2000      1998      2001      2003
      2000      1998      2001      2004      2001      2004      2007      2008
      2001      2004      2007      2009      2001      2004      2007      2010
      2002      2001      2004      2005      2002      2001      2004      2006
      2002      2001      2004      2007      2003      2001      2004      2005
      2003      2001      2004      2006      2003      2001      2004      2007
      2005      2004      2007      2008      2005      2004      2007      2009
      2005      2004      2007      2010      2006      2004      2007      2008
      2006      2004      2007      2009      2006      2004      2007      2010
      2011      2012      2027      2028      2011      2012      2027      2029
      2011      2012      2027      2033      2012      2011      2015      2016
      2012      2011      2015      2017      2012      2011      2015      2018
      2012      2011      2019      2020      2012      2011      2019      2021
      2012      2011      2019      2022      2012      2011      2023      2024
      2012      2011      2023      2025      2012      2011      2023      2026
      2012      2027      2033      2030      2013      2012      2011      2015
      2013      2012      2011      2019      2013      2012      2011      2023
      2013      2012      2027      2028      2013      2012      2027      2029
      2013      2012      2027      2033      2014      2012      2011      2015
      2014      2012      2011      2019      2014      2012      2011      2023
      2014      2012      2027      2028      2014      2012      2027      2029
      2014      2012      2027      2033      2015      2011      2012      2027
      2015      2011      2019      2020      2015      2011      2019      2021
      2015      2011      2019      2022      2015      2011      2023      2024
      2015      2011      2023      2025      2015      2011      2023      2026
      2016      2015      2011      2019      2016      2015      2011      2023
      2017      2015      2011      2019      2017      2015      2011      2023
      2018      2015      2011      2019      2018      2015      2011      2023
      2019      2011      2012      2027      2019      2011      2023      2024
      2019      2011      2023      2025      2019      2011      2023      2026
      2020      2019      2011      2023      2021      2019      2011      2023
      2022      2019      2011      2023      2023      2011      2012      2027
      2027      2033      2030      2031      2027      2033      2030      2032
      2027      2033      2030      2034      2028      2027      2033      2030
      2029      2027      2033      2030      2030      2034      2035      2036
      2030      2034      2035      2037      2030      2034      2035      2038
      2031      2030      2034      2035      2032      2030      2034      2035
      2033      2030      2034      2035      2034      2035      2038      2039
      2034      2035      2038      2040      2034      2035      2038      2046
      2035      2038      2040      2041      2035      2038      2046      2047
      2035      2038      2046      2048      2035      2038      2046      2049
      2036      2035      2038      2039      2036      2035      2038      2040
      2036      2035      2038      2046      2037      2035      2038      2039
      2037      2035      2038      2040      2037      2035      2038      2046
      2038      2040      2041      2042      2038      2040      2041      2043
      2038      2046      2049      2050      2039      2038      2040      2041
      2039      2038      2046      2047      2039      2038      2046      2048
      2039      2038      2046      2049      2040      2038      2046      2047
      2040      2038      2046      2048      2040      2038      2046      2049
      2040      2041      2043      2044      2040      2041      2043      2045
      2040      2041      2043      2055      2041      2040      2038      2046
      2041      2043      2055      2056      2041      2043      2055      2057
      2041      2043      2055      2058      2042      2041      2043      2044
      2042      2041      2043      2045      2042      2041      2043      2055
      2043      2055      2058      2059      2043      2055      2058      2060
      2043      2055      2058      2061      2044      2043      2055      2056
      2044      2043      2055      2057      2044      2043      2055      2058
      2045      2043      2055      2056      2045      2043      2055      2057
      2045      2043      2055      2058      2046      2049      2050      2051
      2046      2049      2050      2052      2047      2046      2049      2050
      2048      2046      2049      2050      2049      2050      2052      2053
      2049      2050      2052      2054      2049      2050      2052      2102
      2050      2052      2102      2103      2050      2052      2102      2104
      2050      2052      2102      2105      2051      2050      2052      2053
      2051      2050      2052      2054      2051      2050      2052      2102
      2052      2102      2105      2106      2052      2102      2105      2107
      2052      2102      2105      2108      2053      2052      2102      2103
      2053      2052      2102      2104      2053      2052      2102      2105
      2054      2052      2102      2103      2054      2052      2102      2104
      2054      2052      2102      2105      2055      2058      2061      2062
      2055      2058      2061      2063      2055      2058      2061      2064
      2056      2055      2058      2059      2056      2055      2058      2060
      2056      2055      2058      2061      2057      2055      2058      2059
      2057      2055      2058      2060      2057      2055      2058      2061
      2058      2061      2064      2065      2058      2061      2064      2066
      2058      2061      2064      2067      2059      2058      2061      2062
      2059      2058      2061      2063      2059      2058      2061      2064
      2060      2058      2061      2062      2060      2058      2061      2063
      2060      2058      2061      2064      2061      2064      2067      2068
      2061      2064      2067      2069      2061      2064      2067      2070
      2062      2061      2064      2065      2062      2061      2064      2066
      2062      2061      2064      2067      2063      2061      2064      2065
      2063      2061      2064      2066      2063      2061      2064      2067
      2064      2067      2070      2071      2064      2067      2070      2072
      2064      2067      2070      2073      2065      2064      2067      2068
      2065      2064      2067      2069      2065      2064      2067      2070
      2066      2064      2067      2068      2066      2064      2067      2069
      2066      2064      2067      2070      2067      2070      2073      2074
      2067      2070      2073      2075      2068      2067      2070      2071
      2068      2067      2070      2072      2068      2067      2070      2073
      2069      2067      2070      2071      2069      2067      2070      2072
      2069      2067      2070      2073      2070      2073      2075      2076
      2070      2073      2075      2077      2071      2070      2073      2074
      2071      2070      2073      2075      2072      2070      2073      2074
      2072      2070      2073      2075      2073      2075      2077      2078
      2073      2075      2077      2079      2073      2075      2077      2080
      2074      2073      2075      2076      2074      2073      2075      2077
      2075      2077      2080      2081      2075      2077      2080      2082
      2075      2077      2080      2083      2076      2075      2077      2078
      2076      2075      2077      2079      2076      2075      2077      2080
      2077      2080      2083      2084      2077      2080      2083      2085
      2077      2080      2083      2086      2078      2077      2080      2081
      2078      2077      2080      2082      2078      2077      2080      2083
      2079      2077      2080      2081      2079      2077      2080      2082
      2079      2077      2080      2083      2080      2083      2086      2087
      2080      2083      2086      2088      2080      2083      2086      2089
      2081      2080      2083      2084      2081      2080      2083      2085
      2081      2080      2083      2086      2082      2080      2083      2084
      2082      2080      2083      2085      2082      2080      2083      2086
      2083      2086      2089      2090      2083      2086      2089      2091
      2083      2086      2089      2092      2084      2083      2086      2087
      2084      2083      2086      2088      2084      2083      2086      2089
      2085      2083      2086      2087      2085      2083      2086      2088
      2085      2083      2086      2089      2086      2089      2092      2093
      2086      2089      2092      2094      2086      2089      2092      2095
      2087      2086      2089      2090      2087      2086      2089      2091
      2087      2086      2089      2092      2088      2086      2089      2090
      2088      2086      2089      2091      2088      2086      2089      2092
      2089      2092      2095      2096      2089      2092      2095      2097
      2089      2092      2095      2098      2090      2089      2092      2093
      2090      2089      2092      2094      2090      2089      2092      2095
      2091      2089      2092      2093      2091      2089      2092      2094
      2091      2089      2092      2095      2092      2095      2098      2099
      2092      2095      2098      2100      2092      2095      2098      2101
      2093      2092      2095      2096      2093      2092      2095      2097
      2093      2092      2095      2098      2094      2092      2095      2096
      2094      2092      2095      2097      2094      2092      2095      2098
      2096      2095      2098      2099      2096      2095      2098      2100
      2096      2095      2098      2101      2097      2095      2098      2099
      2097      2095      2098      2100      2097      2095      2098      2101
      2102      2105      2108      2109      2102      2105      2108      2110
      2102      2105      2108      2111      2103      2102      2105      2106
      2103      2102      2105      2107      2103      2102      2105      2108
      2104      2102      2105      2106      2104      2102      2105      2107
      2104      2102      2105      2108      2105      2108      2111      2112
      2105      2108      2111      2113      2105      2108      2111      2114
      2106      2105      2108      2109      2106      2105      2108      2110
      2106      2105      2108      2111      2107      2105      2108      2109
      2107      2105      2108      2110      2107      2105      2108      2111
      2108      2111      2114      2115      2108      2111      2114      2116
      2108      2111      2114      2117      2109      2108      2111      2112
      2109      2108      2111      2113      2109      2108      2111      2114
      2110      2108      2111      2112      2110      2108      2111      2113
      2110      2108      2111      2114      2111      2114      2117      2118
      2111      2114      2117      2119      2111      2114      2117      2120
      2112      2111      2114      2115      2112      2111      2114      2116
      2112      2111      2114      2117      2113      2111      2114      2115
      2113      2111      2114      2116      2113      2111      2114      2117
      2114      2117      2120      2121      2114      2117      2120      2122
      2114      2117      2120      2123      2115      2114      2117      2118
      2115      2114      2117      2119      2115      2114      2117      2120
      2116      2114      2117      2118      2116      2114      2117      2119
      2116      2114      2117      2120      2117      2120      2123      2124
      2117      2120      2123      2125      2117      2120      2123      2126
      2118      2117      2120      2121      2118      2117      2120      2122
      2118      2117      2120      2123      2119      2117      2120      2121
      2119      2117      2120      2122      2119      2117      2120      2123
      2120      2123      2126      2127      2120      2123      2126      2128
      2120      2123      2126      2129      2121      2120      2123      2124
      2121      2120      2123      2125      2121      2120      2123      2126
      2122      2120      2123      2124      2122      2120      2123      2125
      2122      2120      2123      2126      2123      2126      2129      2130
      2123      2126      2129      2131      2123      2126      2129      2132
      2124      2123      2126      2127      2124      2123      2126      2128
      2124      2123      2126      2129      2125      2123      2126      2127
      2125      2123      2126      2128      2125      2123      2126      2129
      2126      2129      2132      2133      2126      2129      2132      2134
      2126      2129      2132      2135      2127      2126      2129      2130
      2127      2126      2129      2131      2127      2126      2129      2132
      2128      2126      2129      2130      2128      2126      2129      2131
      2128      2126      2129      2132      2129      2132      2135      2136
      2129      2132      2135      2137      2129      2132      2135      2138
      2130      2129      2132      2133      2130      2129      2132      2134
      2130      2129      2132      2135      2131      2129      2132      2133
      2131      2129      2132      2134      2131      2129      2132      2135
      2132      2135      2138      2139      2132      2135      2138      2140
      2132      2135      2138      2141      2133      2132      2135      2136
      2133      2132      2135      2137      2133      2132      2135      2138
      2134      2132      2135      2136      2134      2132      2135      2137
      2134      2132      2135      2138      2135      2138      2141      2142
      2135      2138      2141      2143      2135      2138      2141      2144
      2136      2135      2138      2139      2136      2135      2138      2140
      2136      2135      2138      2141      2137      2135      2138      2139
      2137      2135      2138      2140      2137      2135      2138      2141
      2139      2138      2141      2142      2139      2138      2141      2143
      2139      2138      2141      2144      2140      2138      2141      2142
      2140      2138      2141      2143      2140      2138      2141      2144
      2145      2146      2161      2162      2145      2146      2161      2163
      2145      2146      2161      2167      2146      2145      2149      2150
      2146      2145      2149      2151      2146      2145      2149      2152
      2146      2145      2153      2154      2146      2145      2153      2155
      2146      2145      2153      2156      2146      2145      2157      2158
      2146      2145      2157      2159      2146      2145      2157      2160
      2146      2161      2167      2164      2147      2146      2145      2149
      2147      2146      2145      2153      2147      2146      2145      2157
      2147      2146      2161      2162      2147      2146      2161      2163
      2147      2146      2161      2167      2148      2146      2145      2149
      2148      2146      2145      2153      2148      2146      2145      2157
      2148      2146      2161      2162      2148      2146      2161      2163
      2148      2146      2161      2167      2149      2145      2146      2161
      2149      2145      2153      2154      2149      2145      2153      2155
      2149      2145      2153      2156      2149      2145      2157      2158
      2149      2145      2157      2159      2149      2145      2157      2160
      2150      2149      2145      2153      2150      2149      2145      2157
      2151      2149      2145      2153      2151      2149      2145      2157
      2152      2149      2145      2153      2152      2149      2145      2157
      2153      2145      2146      2161      2153      2145      2157      2158
      2153      2145      2157      2159      2153      2145      2157      2160
      2154      2153      2145      2157      2155      2153      2145      2157
      2156      2153      2145      2157      2157      2145      2146      2161
      2161      2167      2164      2165      2161      2167      2164      2166
      2161      2167      2164      2168      2162      2161      2167      2164
      2163      2161      2167      2164      2164      2168      2169      2170
      2164      2168      2169      2171      2164      2168      2169      2172
      2165      2164      2168      2169      2166      2164      2168      2169
      2167      2164      2168      2169      2168      2169      2172      2173
      2168      2169      2172      2174      2168      2169      2172      2180
      2169      2172      2174      2175      2169      2172      2180      2181
      2169      2172      2180      2182      2169      2172      2180      2183
      2170      2169      2172      2173      2170      2169      2172      2174
      2170      2169      2172      2180      2171      2169      2172      2173
      2171      2169      2172      2174      2171      2169      2172      2180
      2172      2174      2175      2176      2172      2174      2175      2177
      2172      2180      2183      2184      2173      2172      2174      2175
      2173      2172      2180      2181      2173      2172      2180      2182
      2173      2172      2180      2183      2174      2172      2180      2181
      2174      2172      2180      2182      2174      2172      2180      2183
      2174      2175      2177      2178      2174      2175      2177      2179
      2174      2175      2177      2189      2175      2174      2172      2180
      2175      2177      2189      2190      2175      2177      2189      2191
      2175      2177      2189      2192      2176      2175      2177      2178
      2176      2175      2177      2179      2176      2175      2177      2189
      2177      2189      2192      2193      2177      2189      2192      2194
      2177      2189      2192      2195      2178      2177      2189      2190
      2178      2177      2189      2191      2178      2177      2189      2192
      2179      2177      2189      2190      2179      2177      2189      2191
      2179      2177      2189      2192      2180      2183      2184      2185
      2180      2183      2184      2186      2181      2180      2183      2184
      2182      2180      2183      2184      2183      2184      2186      2187
      2183      2184      2186      2188      2183      2184      2186      2236
      2184      2186      2236      2237      2184      2186      2236      2238
      2184      2186      2236      2239      2185      2184      2186      2187
      2185      2184      2186      2188      2185      2184      2186      2236
      2186      2236      2239      2240      2186      2236      2239      2241
      2186      2236      2239      2242      2187      2186      2236      2237
      2187      2186      2236      2238      2187      2186      2236      2239
      2188      2186      2236      2237      2188      2186      2236      2238
      2188      2186      2236      2239      2189      2192      2195      2196
      2189      2192      2195      2197      2189      2192      2195      2198
      2190      2189      2192      2193      2190      2189      2192      2194
      2190      2189      2192      2195      2191      2189      2192      2193
      2191      2189      2192      2194      2191      2189      2192      2195
      2192      2195      2198      2199      2192      2195      2198      2200
      2192      2195      2198      2201      2193      2192      2195      2196
      2193      2192      2195      2197      2193      2192      2195      2198
      2194      2192      2195      2196      2194      2192      2195      2197
      2194      2192      2195      2198      2195      2198      2201      2202
      2195      2198      2201      2203      2195      2198      2201      2204
      2196      2195      2198      2199      2196      2195      2198      2200
      2196      2195      2198      2201      2197      2195      2198      2199
      2197      2195      2198      2200      2197      2195      2198      2201
      2198      2201      2204      2205      2198      2201      2204      2206
      2198      2201      2204      2207      2199      2198      2201      2202
      2199      2198      2201      2203      2199      2198      2201      2204
      2200      2198      2201      2202      2200      2198      2201      2203
      2200      2198      2201      2204      2201      2204      2207      2208
      2201      2204      2207      2209      2202      2201      2204      2205
      2202      2201      2204      2206      2202      2201      2204      2207
      2203      2201      2204      2205      2203      2201      2204      2206
      2203      2201      2204      2207      2204      2207      2209      2210
      2204      2207      2209      2211      2205      2204      2207      2208
      2205      2204      2207      2209      2206      2204      2207      2208
      2206      2204      2207      2209      2207      2209      2211      2212
      2207      2209      2211      2213      2207      2209      2211      2214
      2208      2207      2209      2210      2208      2207      2209      2211
      2209      2211      2214      2215      2209      2211      2214      2216
      2209      2211      2214      2217      2210      2209      2211      2212
      2210      2209      2211      2213      2210      2209      2211      2214
      2211      2214      2217      2218      2211      2214      2217      2219
      2211      2214      2217      2220      2212      2211      2214      2215
      2212      2211      2214      2216      2212      2211      2214      2217
      2213      2211      2214      2215      2213      2211      2214      2216
      2213      2211      2214      2217      2214      2217      2220      2221
      2214      2217      2220      2222      2214      2217      2220      2223
      2215      2214      2217      2218      2215      2214      2217      2219
      2215      2214      2217      2220      2216      2214      2217      2218
      2216      2214      2217      2219      2216      2214      2217      2220
      2217      2220      2223      2224      2217      2220      2223      2225
      2217      2220      2223      2226      2218      2217      2220      2221
      2218      2217      2220      2222      2218      2217      2220      2223
      2219      2217      2220      2221      2219      2217      2220      2222
      2219      2217      2220      2223      2220      2223      2226      2227
      2220      2223      2226      2228      2220      2223      2226      2229
      2221      2220      2223      2224      2221      2220      2223      2225
      2221      2220      2223      2226      2222      2220      2223      2224
      2222      2220      2223      2225      2222      2220      2223      2226
      2223      2226      2229      2230      2223      2226      2229      2231
      2223      2226      2229      2232      2224      2223      2226      2227
      2224      2223      2226      2228      2224      2223      2226      2229
      2225      2223      2226      2227      2225      2223      2226      2228
      2225      2223      2226      2229      2226      2229      2232      2233
      2226      2229      2232      2234      2226      2229      2232      2235
      2227      2226      2229      2230      2227      2226      2229      2231
      2227      2226      2229      2232      2228      2226      2229      2230
      2228      2226      2229      2231      2228      2226      2229      2232
      2230      2229      2232      2233      2230      2229      2232      2234
      2230      2229      2232      2235      2231      2229      2232      2233
      2231      2229      2232      2234      2231      2229      2232      2235
      2236      2239      2242      2243      2236      2239      2242      2244
      2236      2239      2242      2245      2237      2236      2239      2240
      2237      2236      2239      2241      2237      2236      2239      2242
      2238      2236      2239      2240      2238      2236      2239      2241
      2238      2236      2239      2242      2239      2242      2245      2246
      2239      2242      2245      2247      2239      2242      2245      2248
      2240      2239      2242      2243      2240      2239      2242      2244
      2240      2239      2242      2245      2241      2239      2242      2243
      2241      2239      2242      2244      2241      2239      2242      2245
      2242      2245      2248      2249      2242      2245      2248      2250
      2242      2245      2248      2251      2243      2242      2245      2246
      2243      2242      2245      2247      2243      2242      2245      2248
      2244      2242      2245      2246      2244      2242      2245      2247
      2244      2242      2245      2248      2245      2248      2251      2252
      2245      2248      2251      2253      2245      2248      2251      2254
      2246      2245      2248      2249      2246      2245      2248      2250
      2246      2245      2248      2251      2247      2245      2248      2249
      2247      2245      2248      2250      2247      2245      2248      2251
      2248      2251      2254      2255      2248      2251      2254      2256
      2248      2251      2254      2257      2249      2248      2251      2252
      2249      2248      2251      2253      2249      2248      2251      2254
      2250      2248      2251      2252      2250      2248      2251      2253
      2250      2248      2251      2254      2251      2254      2257      2258
      2251      2254      2257      2259      2251      2254      2257      2260
      2252      2251      2254      2255      2252      2251      2254      2256
      2252      2251      2254      2257      2253      2251      2254      2255
      2253      2251      2254      2256      2253      2251      2254      2257
      2254      2257      2260      2261      2254      2257      2260      2262
      2254      2257      2260      2263      2255      2254      2257      2258
      2255      2254      2257      2259      2255      2254      2257      2260
      2256      2254      2257      2258      2256      2254      2257      2259
      2256      2254      2257      2260      2257      2260      2263      2264
      2257      2260      2263      2265      2257      2260      2263      2266
      2258      2257      2260      2261      2258      2257      2260      2262
      2258      2257      2260      2263      2259      2257      2260      2261
      2259      2257      2260      2262      2259      2257      2260      2263
      2260      2263      2266      2267      2260      2263      2266      2268
      2260      2263      2266      2269      2261      2260      2263      2264
      2261      2260      2263      2265      2261      2260      2263      2266
      2262      2260      2263      2264      2262      2260      2263      2265
      2262      2260      2263      2266      2263      2266      2269      2270
      2263      2266      2269      2271      2263      2266      2269      2272
      2264      2263      2266      2267      2264      2263      2266      2268
      2264      2263      2266      2269      2265      2263      2266      2267
      2265      2263      2266      2268      2265      2263      2266      2269
      2266      2269      2272      2273      2266      2269      2272      2274
      2266      2269      2272      2275      2267      2266      2269      2270
      2267      2266      2269      2271      2267      2266      2269      2272
      2268      2266      2269      2270      2268      2266      2269      2271
      2268      2266      2269      2272      2269      2272      2275      2276
      2269      2272      2275      2277      2269      2272      2275      2278
      2270      2269      2272      2273      2270      2269      2272      2274
      2270      2269      2272      2275      2271      2269      2272      2273
      2271      2269      2272      2274      2271      2269      2272      2275
      2273      2272      2275      2276      2273      2272      2275      2277
      2273      2272      2275      2278      2274      2272      2275      2276
      2274      2272      2275      2277      2274      2272      2275      2278
      2279      2280      2295      2296      2279      2280      2295      2297
      2279      2280      2295      2301      2280      2279      2283      2284
      2280      2279      2283      2285      2280      2279      2283      2286
      2280      2279      2287      2288      2280      2279      2287      2289
      2280      2279      2287      2290      2280      2279      2291      2292
      2280      2279      2291      2293      2280      2279      2291      2294
      2280      2295      2301      2298      2281      2280      2279      2283
      2281      2280      2279      2287      2281      2280      2279      2291
      2281      2280      2295      2296      2281      2280      2295      2297
      2281      2280      2295      2301      2282      2280      2279      2283
      2282      2280      2279      2287      2282      2280      2279      2291
      2282      2280      2295      2296      2282      2280      2295      2297
      2282      2280      2295      2301      2283      2279      2280      2295
      2283      2279      2287      2288      2283      2279      2287      2289
      2283      2279      2287      2290      2283      2279      2291      2292
      2283      2279      2291      2293      2283      2279      2291      2294
      2284      2283      2279      2287      2284      2283      2279      2291
      2285      2283      2279      2287      2285      2283      2279      2291
      2286      2283      2279      2287      2286      2283      2279      2291
      2287      2279      2280      2295      2287      2279      2291      2292
      2287      2279      2291      2293      2287      2279      2291      2294
      2288      2287      2279      2291      2289      2287      2279      2291
      2290      2287      2279      2291      2291      2279      2280      2295
      2295      2301      2298      2299      2295      2301      2298      2300
      2295      2301      2298      2302      2296      2295      2301      2298
      2297      2295      2301      2298      2298      2302      2303      2304
      2298      2302      2303      2305      2298      2302      2303      2306
      2299      2298      2302      2303      2300      2298      2302      2303
      2301      2298      2302      2303      2302      2303      2306      2307
      2302      2303      2306      2308      2302      2303      2306      2314
      2303      2306      2308      2309      2303      2306      2314      2315
      2303      2306      2314      2316      2303      2306      2314      2317
      2304      2303      2306      2307      2304      2303      2306      2308
      2304      2303      2306      2314      2305      2303      2306      2307
      2305      2303      2306      2308      2305      2303      2306      2314
      2306      2308      2309      2310      2306      2308      2309      2311
      2306      2314      2317      2318      2307      2306      2308      2309
      2307      2306      2314      2315      2307      2306      2314      2316
      2307      2306      2314      2317      2308      2306      2314      2315
      2308      2306      2314      2316      2308      2306      2314      2317
      2308      2309      2311      2312      2308      2309      2311      2313
      2308      2309      2311      2323      2309      2308      2306      2314
      2309      2311      2323      2324      2309      2311      2323      2325
      2309      2311      2323      2326      2310      2309      2311      2312
      2310      2309      2311      2313      2310      2309      2311      2323
      2311      2323      2326      2327      2311      2323      2326      2328
      2311      2323      2326      2329      2312      2311      2323      2324
      2312      2311      2323      2325      2312      2311      2323      2326
      2313      2311      2323      2324      2313      2311      2323      2325
      2313      2311      2323      2326      2314      2317      2318      2319
      2314      2317      2318      2320      2315      2314      2317      2318
      2316      2314      2317      2318      2317      2318      2320      2321
      2317      2318      2320      2322      2317      2318      2320      2370
      2318      2320      2370      2371      2318      2320      2370      2372
      2318      2320      2370      2373      2319      2318      2320      2321
      2319      2318      2320      2322      2319      2318      2320      2370
      2320      2370      2373      2374      2320      2370      2373      2375
      2320      2370      2373      2376      2321      2320      2370      2371
      2321      2320      2370      2372      2321      2320      2370      2373
      2322      2320      2370      2371      2322      2320      2370      2372
      2322      2320      2370      2373      2323      2326      2329      2330
      2323      2326      2329      2331      2323      2326      2329      2332
      2324      2323      2326      2327      2324      2323      2326      2328
      2324      2323      2326      2329      2325      2323      2326      2327
      2325      2323      2326      2328      2325      2323      2326      2329
      2326      2329      2332      2333      2326      2329      2332      2334
      2326      2329      2332      2335      2327      2326      2329      2330
      2327      2326      2329      2331      2327      2326      2329      2332
      2328      2326      2329      2330      2328      2326      2329      2331
      2328      2326      2329      2332      2329      2332      2335      2336
      2329      2332      2335      2337      2329      2332      2335      2338
      2330      2329      2332      2333      2330      2329      2332      2334
      2330      2329      2332      2335      2331      2329      2332      2333
      2331      2329      2332      2334      2331      2329      2332      2335
      2332      2335      2338      2339      2332      2335      2338      2340
      2332      2335      2338      2341      2333      2332      2335      2336
      2333      2332      2335      2337      2333      2332      2335      2338
      2334      2332      2335      2336      2334      2332      2335      2337
      2334      2332      2335      2338      2335      2338      2341      2342
      2335      2338      2341      2343      2336      2335      2338      2339
      2336      2335      2338      2340      2336      2335      2338      2341
      2337      2335      2338      2339      2337      2335      2338      2340
      2337      2335      2338      2341      2338      2341      2343      2344
      2338      2341      2343      2345      2339      2338      2341      2342
      2339      2338      2341      2343      2340      2338      2341      2342
      2340      2338      2341      2343      2341      2343      2345      2346
      2341      2343      2345      2347      2341      2343      2345      2348
      2342      2341      2343      2344      2342      2341      2343      2345
      2343      2345      2348      2349      2343      2345      2348      2350
      2343      2345      2348      2351      2344      2343      2345      2346
      2344      2343      2345      2347      2344      2343      2345      2348
      2345      2348      2351      2352      2345      2348      2351      2353
      2345      2348      2351      2354      2346      2345      2348      2349
      2346      2345      2348      2350      2346      2345      2348      2351
      2347      2345      2348      2349      2347      2345      2348      2350
      2347      2345      2348      2351      2348      2351      2354      2355
      2348      2351      2354      2356      2348      2351      2354      2357
      2349      2348      2351      2352      2349      2348      2351      2353
      2349      2348      2351      2354      2350      2348      2351      2352
      2350      2348      2351      2353      2350      2348      2351      2354
      2351      2354      2357      2358      2351      2354      2357      2359
      2351      2354      2357      2360      2352      2351      2354      2355
      2352      2351      2354      2356      2352      2351      2354      2357
      2353      2351      2354      2355      2353      2351      2354      2356
      2353      2351      2354      2357      2354      2357      2360      2361
      2354      2357      2360      2362      2354      2357      2360      2363
      2355      2354      2357      2358      2355      2354      2357      2359
      2355      2354      2357      2360      2356      2354      2357      2358
      2356      2354      2357      2359      2356      2354      2357      2360
      2357      2360      2363      2364      2357      2360      2363      2365
      2357      2360      2363      2366      2358      2357      2360      2361
      2358      2357      2360      2362      2358      2357      2360      2363
      2359      2357      2360      2361      2359      2357      2360      2362
      2359      2357      2360      2363      2360      2363      2366      2367
      2360      2363      2366      2368      2360      2363      2366      2369
      2361      2360      2363      2364      2361      2360      2363      2365
      2361      2360      2363      2366      2362      2360      2363      2364
      2362      2360      2363      2365      2362      2360      2363      2366
      2364      2363      2366      2367      2364      2363      2366      2368
      2364      2363      2366      2369      2365      2363      2366      2367
      2365      2363      2366      2368      2365      2363      2366      2369
      2370      2373      2376      2377      2370      2373      2376      2378
      2370      2373      2376      2379      2371      2370      2373      2374
      2371      2370      2373      2375      2371      2370      2373      2376
      2372      2370      2373      2374      2372      2370      2373      2375
      2372      2370      2373      2376      2373      2376      2379      2380
      2373      2376      2379      2381      2373      2376      2379      2382
      2374      2373      2376      2377      2374      2373      2376      2378
      2374      2373      2376      2379      2375      2373      2376      2377
      2375      2373      2376      2378      2375      2373      2376      2379
      2376      2379      2382      2383      2376      2379      2382      2384
      2376      2379      2382      2385      2377      2376      2379      2380
      2377      2376      2379      2381      2377      2376      2379      2382
      2378      2376      2379      2380      2378      2376      2379      2381
      2378      2376      2379      2382      2379      2382      2385      2386
      2379      2382      2385      2387      2379      2382      2385      2388
      2380      2379      2382      2383      2380      2379      2382      2384
      2380      2379      2382      2385      2381      2379      2382      2383
      2381      2379      2382      2384      2381      2379      2382      2385
      2382      2385      2388      2389      2382      2385      2388      2390
      2382      2385      2388      2391      2383      2382      2385      2386
      2383      2382      2385      2387      2383      2382      2385      2388
      2384      2382      2385      2386      2384      2382      2385      2387
      2384      2382      2385      2388      2385      2388      2391      2392
      2385      2388      2391      2393      2385      2388      2391      2394
      2386      2385      2388      2389      2386      2385      2388      2390
      2386      2385      2388      2391      2387      2385      2388      2389
      2387      2385      2388      2390      2387      2385      2388      2391
      2388      2391      2394      2395      2388      2391      2394      2396
      2388      2391      2394      2397      2389      2388      2391      2392
      2389      2388      2391      2393      2389      2388      2391      2394
      2390      2388      2391      2392      2390      2388      2391      2393
      2390      2388      2391      2394      2391      2394      2397      2398
      2391      2394      2397      2399      2391      2394      2397      2400
      2392      2391      2394      2395      2392      2391      2394      2396
      2392      2391      2394      2397      2393      2391      2394      2395
      2393      2391      2394      2396      2393      2391      2394      2397
      2394      2397      2400      2401      2394      2397      2400      2402
      2394      2397      2400      2403      2395      2394      2397      2398
      2395      2394      2397      2399      2395      2394      2397      2400
      2396      2394      2397      2398      2396      2394      2397      2399
      2396      2394      2397      2400      2397      2400      2403      2404
      2397      2400      2403      2405      2397      2400      2403      2406
      2398      2397      2400      2401      2398      2397      2400      2402
      2398      2397      2400      2403      2399      2397      2400      2401
      2399      2397      2400      2402      2399      2397      2400      2403
      2400      2403      2406      2407      2400      2403      2406      2408
      2400      2403      2406      2409      2401      2400      2403      2404
      2401      2400      2403      2405      2401      2400      2403      2406
      2402      2400      2403      2404      2402      2400      2403      2405
      2402      2400      2403      2406      2403      2406      2409      2410
      2403      2406      2409      2411      2403      2406      2409      2412
      2404      2403      2406      2407      2404      2403      2406      2408
      2404      2403      2406      2409      2405      2403      2406      2407
      2405      2403      2406      2408      2405      2403      2406      2409
      2407      2406      2409      2410      2407      2406      2409      2411
      2407      2406      2409      2412      2408      2406      2409      2410
      2408      2406      2409      2411      2408      2406      2409      2412
      2413      2414      2429      2430      2413      2414      2429      2431
      2413      2414      2429      2435      2414      2413      2417      2418
      2414      2413      2417      2419      2414      2413      2417      2420
      2414      2413      2421      2422      2414      2413      2421      2423
      2414      2413      2421      2424      2414      2413      2425      2426
      2414      2413      2425      2427      2414      2413      2425      2428
      2414      2429      2435      2432      2415      2414      2413      2417
      2415      2414      2413      2421      2415      2414      2413      2425
      2415      2414      2429      2430      2415      2414      2429      2431
      2415      2414      2429      2435      2416      2414      2413      2417
      2416      2414      2413      2421      2416      2414      2413      2425
      2416      2414      2429      2430      2416      2414      2429      2431
      2416      2414      2429      2435      2417      2413      2414      2429
      2417      2413      2421      2422      2417      2413      2421      2423
      2417      2413      2421      2424      2417      2413      2425      2426
      2417      2413      2425      2427      2417      2413      2425      2428
      2418      2417      2413      2421      2418      2417      2413      2425
      2419      2417      2413      2421      2419      2417      2413      2425
      2420      2417      2413      2421      2420      2417      2413      2425
      2421      2413      2414      2429      2421      2413      2425      2426
      2421      2413      2425      2427      2421      2413      2425      2428
      2422      2421      2413      2425      2423      2421      2413      2425
      2424      2421      2413      2425      2425      2413      2414      2429
      2429      2435      2432      2433      2429      2435      2432      2434
      2429      2435      2432      2436      2430      2429      2435      2432
      2431      2429      2435      2432      2432      2436      2437      2438
      2432      2436      2437      2439      2432      2436      2437      2440
      2433      2432      2436      2437      2434      2432      2436      2437
      2435      2432      2436      2437      2436      2437      2440      2441
      2436      2437      2440      2442      2436      2437      2440      2448
      2437      2440      2442      2443      2437      2440      2448      2449
      2437      2440      2448      2450      2437      2440      2448      2451
      2438      2437      2440      2441      2438      2437      2440      2442
      2438      2437      2440      2448      2439      2437      2440      2441
      2439      2437      2440      2442      2439      2437      2440      2448
      2440      2442      2443      2444      2440      2442      2443      2445
      2440      2448      2451      2452      2441      2440      2442      2443
      2441      2440      2448      2449      2441      2440      2448      2450
      2441      2440      2448      2451      2442      2440      2448      2449
      2442      2440      2448      2450      2442      2440      2448      2451
      2442      2443      2445      2446      2442      2443      2445      2447
      2442      2443      2445      2457      2443      2442      2440      2448
      2443      2445      2457      2458      2443      2445      2457      2459
      2443      2445      2457      2460      2444      2443      2445      2446
      2444      2443      2445      2447      2444      2443      2445      2457
      2445      2457      2460      2461      2445      2457      2460      2462
      2445      2457      2460      2463      2446      2445      2457      2458
      2446      2445      2457      2459      2446      2445      2457      2460
      2447      2445      2457      2458      2447      2445      2457      2459
      2447      2445      2457      2460      2448      2451      2452      2453
      2448      2451      2452      2454      2449      2448      2451      2452
      2450      2448      2451      2452      2451      2452      2454      2455
      2451      2452      2454      2456      2451      2452      2454      2504
      2452      2454      2504      2505      2452      2454      2504      2506
      2452      2454      2504      2507      2453      2452      2454      2455
      2453      2452      2454      2456      2453      2452      2454      2504
      2454      2504      2507      2508      2454      2504      2507      2509
      2454      2504      2507      2510      2455      2454      2504      2505
      2455      2454      2504      2506      2455      2454      2504      2507
      2456      2454      2504      2505      2456      2454      2504      2506
      2456      2454      2504      2507      2457      2460      2463      2464
      2457      2460      2463      2465      2457      2460      2463      2466
      2458      2457      2460      2461      2458      2457      2460      2462
      2458      2457      2460      2463      2459      2457      2460      2461
      2459      2457      2460      2462      2459      2457      2460      2463
      2460      2463      2466      2467      2460      2463      2466      2468
      2460      2463      2466      2469      2461      2460      2463      2464
      2461      2460      2463      2465      2461      2460      2463      2466
      2462      2460      2463      2464      2462      2460      2463      2465
      2462      2460      2463      2466      2463      2466      2469      2470
      2463      2466      2469      2471      2463      2466      2469      2472
      2464      2463      2466      2467      2464      2463      2466      2468
      2464      2463      2466      2469      2465      2463      2466      2467
      2465      2463      2466      2468      2465      2463      2466      2469
      2466      2469      2472      2473      2466      2469      2472      2474
      2466      2469      2472      2475      2467      2466      2469      2470
      2467      2466      2469      2471      2467      2466      2469      2472
      2468      2466      2469      2470      2468      2466      2469      2471
      2468      2466      2469      2472      2469      2472      2475      2476
      2469      2472      2475      2477      2470      2469      2472      2473
      2470      2469      2472      2474      2470      2469      2472      2475
      2471      2469      2472      2473      2471      2469      2472      2474
      2471      2469      2472      2475      2472      2475      2477      2478
      2472      2475      2477      2479      2473      2472      2475      2476
      2473      2472      2475      2477      2474      2472      2475      2476
      2474      2472      2475      2477      2475      2477      2479      2480
      2475      2477      2479      2481      2475      2477      2479      2482
      2476      2475      2477      2478      2476      2475      2477      2479
      2477      2479      2482      2483      2477      2479      2482      2484
      2477      2479      2482      2485      2478      2477      2479      2480
      2478      2477      2479      2481      2478      2477      2479      2482
      2479      2482      2485      2486      2479      2482      2485      2487
      2479      2482      2485      2488      2480      2479      2482      2483
      2480      2479      2482      2484      2480      2479      2482      2485
      2481      2479      2482      2483      2481      2479      2482      2484
      2481      2479      2482      2485      2482      2485      2488      2489
      2482      2485      2488      2490      2482      2485      2488      2491
      2483      2482      2485      2486      2483      2482      2485      2487
      2483      2482      2485      2488      2484      2482      2485      2486
      2484      2482      2485      2487      2484      2482      2485      2488
      2485      2488      2491      2492      2485      2488      2491      2493
      2485      2488      2491      2494      2486      2485      2488      2489
      2486      2485      2488      2490      2486      2485      2488      2491
      2487      2485      2488      2489      2487      2485      2488      2490
      2487      2485      2488      2491      2488      2491      2494      2495
      2488      2491      2494      2496      2488      2491      2494      2497
      2489      2488      2491      2492      2489      2488      2491      2493
      2489      2488      2491      2494      2490      2488      2491      2492
      2490      2488      2491      2493      2490      2488      2491      2494
      2491      2494      2497      2498      2491      2494      2497      2499
      2491      2494      2497      2500      2492      2491      2494      2495
      2492      2491      2494      2496      2492      2491      2494      2497
      2493      2491      2494      2495      2493      2491      2494      2496
      2493      2491      2494      2497      2494      2497      2500      2501
      2494      2497      2500      2502      2494      2497      2500      2503
      2495      2494      2497      2498      2495      2494      2497      2499
      2495      2494      2497      2500      2496      2494      2497      2498
      2496      2494      2497      2499      2496      2494      2497      2500
      2498      2497      2500      2501      2498      2497      2500      2502
      2498      2497      2500      2503      2499      2497      2500      2501
      2499      2497      2500      2502      2499      2497      2500      2503
      2504      2507      2510      2511      2504      2507      2510      2512
      2504      2507      2510      2513      2505      2504      2507      2508
      2505      2504      2507      2509      2505      2504      2507      2510
      2506      2504      2507      2508      2506      2504      2507      2509
      2506      2504      2507      2510      2507      2510      2513      2514
      2507      2510      2513      2515      2507      2510      2513      2516
      2508      2507      2510      2511      2508      2507      2510      2512
      2508      2507      2510      2513      2509      2507      2510      2511
      2509      2507      2510      2512      2509      2507      2510      2513
      2510      2513      2516      2517      2510      2513      2516      2518
      2510      2513      2516      2519      2511      2510      2513      2514
      2511      2510      2513      2515      2511      2510      2513      2516
      2512      2510      2513      2514      2512      2510      2513      2515
      2512      2510      2513      2516      2513      2516      2519      2520
      2513      2516      2519      2521      2513      2516      2519      2522
      2514      2513      2516      2517      2514      2513      2516      2518
      2514      2513      2516      2519      2515      2513      2516      2517
      2515      2513      2516      2518      2515      2513      2516      2519
      2516      2519      2522      2523      2516      2519      2522      2524
      2516      2519      2522      2525      2517      2516      2519      2520
      2517      2516      2519      2521      2517      2516      2519      2522
      2518      2516      2519      2520      2518      2516      2519      2521
      2518      2516      2519      2522      2519      2522      2525      2526
      2519      2522      2525      2527      2519      2522      2525      2528
      2520      2519      2522      2523      2520      2519      2522      2524
      2520      2519      2522      2525      2521      2519      2522      2523
      2521      2519      2522      2524      2521      2519      2522      2525
      2522      2525      2528      2529      2522      2525      2528      2530
      2522      2525      2528      2531      2523      2522      2525      2526
      2523      2522      2525      2527      2523      2522      2525      2528
      2524      2522      2525      2526      2524      2522      2525      2527
      2524      2522      2525      2528      2525      2528      2531      2532
      2525      2528      2531      2533      2525      2528      2531      2534
      2526      2525      2528      2529      2526      2525      2528      2530
      2526      2525      2528      2531      2527      2525      2528      2529
      2527      2525      2528      2530      2527      2525      2528      2531
      2528      2531      2534      2535      2528      2531      2534      2536
      2528      2531      2534      2537      2529      2528      2531      2532
      2529      2528      2531      2533      2529      2528      2531      2534
      2530      2528      2531      2532      2530      2528      2531      2533
      2530      2528      2531      2534      2531      2534      2537      2538
      2531      2534      2537      2539      2531      2534      2537      2540
      2532      2531      2534      2535      2532      2531      2534      2536
      2532      2531      2534      2537      2533      2531      2534      2535
      2533      2531      2534      2536      2533      2531      2534      2537
      2534      2537      2540      2541      2534      2537      2540      2542
      2534      2537      2540      2543      2535      2534      2537      2538
      2535      2534      2537      2539      2535      2534      2537      2540
      2536      2534      2537      2538      2536      2534      2537      2539
      2536      2534      2537      2540      2537      2540      2543      2544
      2537      2540      2543      2545      2537      2540      2543      2546
      2538      2537      2540      2541      2538      2537      2540      2542
      2538      2537      2540      2543      2539      2537      2540      2541
      2539      2537      2540      2542      2539      2537      2540      2543
      2541      2540      2543      2544      2541      2540      2543      2545
      2541      2540      2543      2546      2542      2540      2543      2544
      2542      2540      2543      2545      2542      2540      2543      2546
      2547      2548      2563      2564      2547      2548      2563      2565
      2547      2548      2563      2569      2548      2547      2551      2552
      2548      2547      2551      2553      2548      2547      2551      2554
      2548      2547      2555      2556      2548      2547      2555      2557
      2548      2547      2555      2558      2548      2547      2559      2560
      2548      2547      2559      2561      2548      2547      2559      2562
      2548      2563      2569      2566      2549      2548      2547      2551
      2549      2548      2547      2555      2549      2548      2547      2559
      2549      2548      2563      2564      2549      2548      2563      2565
      2549      2548      2563      2569      2550      2548      2547      2551
      2550      2548      2547      2555      2550      2548      2547      2559
      2550      2548      2563      2564      2550      2548      2563      2565
      2550      2548      2563      2569      2551      2547      2548      2563
      2551      2547      2555      2556      2551      2547      2555      2557
      2551      2547      2555      2558      2551      2547      2559      2560
      2551      2547      2559      2561      2551      2547      2559      2562
      2552      2551      2547      2555      2552      2551      2547      2559
      2553      2551      2547      2555      2553      2551      2547      2559
      2554      2551      2547      2555      2554      2551      2547      2559
      2555      2547      2548      2563      2555      2547      2559      2560
      2555      2547      2559      2561      2555      2547      2559      2562
      2556      2555      2547      2559      2557      2555      2547      2559
      2558      2555      2547      2559      2559      2547      2548      2563
      2563      2569      2566      2567      2563      2569      2566      2568
      2563      2569      2566      2570      2564      2563      2569      2566
      2565      2563      2569      2566      2566      2570      2571      2572
      2566      2570      2571      2573      2566      2570      2571      2574
      2567      2566      2570      2571      2568      2566      2570      2571
      2569      2566      2570      2571      2570      2571      2574      2575
      2570      2571      2574      2576      2570      2571      2574      2582
      2571      2574      2576      2577      2571      2574      2582      2583
      2571      2574      2582      2584      2571      2574      2582      2585
      2572      2571      2574      2575      2572      2571      2574      2576
      2572      2571      2574      2582      2573      2571      2574      2575
      2573      2571      2574      2576      2573      2571      2574      2582
      2574      2576      2577      2578      2574      2576      2577      2579
      2574      2582      2585      2586      2575      2574      2576      2577
      2575      2574      2582      2583      2575      2574      2582      2584
      2575      2574      2582      2585      2576      2574      2582      2583
      2576      2574      2582      2584      2576      2574      2582      2585
      2576      2577      2579      2580      2576      2577      2579      2581
      2576      2577      2579      2591      2577      2576      2574      2582
      2577      2579      2591      2592      2577      2579      2591      2593
      2577      2579      2591      2594      2578      2577      2579      2580
      2578      2577      2579      2581      2578      2577      2579      2591
      2579      2591      2594      2595      2579      2591      2594      2596
      2579      2591      2594      2597      2580      2579      2591      2592
      2580      2579      2591      2593      2580      2579      2591      2594
      2581      2579      2591      2592      2581      2579      2591      2593
      2581      2579      2591      2594      2582      2585      2586      2587
      2582      2585      2586      2588      2583      2582      2585      2586
      2584      2582      2585      2586      2585      2586      2588      2589
      2585      2586      2588      2590      2585      2586      2588      2638
      2586      2588      2638      2639      2586      2588      2638      2640
      2586      2588      2638      2641      2587      2586      2588      2589
      2587      2586      2588      2590      2587      2586      2588      2638
      2588      2638      2641      2642      2588      2638      2641      2643
      2588      2638      2641      2644      2589      2588      2638      2639
      2589      2588      2638      2640      2589      2588      2638      2641
      2590      2588      2638      2639      2590      2588      2638      2640
      2590      2588      2638      2641      2591      2594      2597      2598
      2591      2594      2597      2599      2591      2594      2597      2600
      2592      2591      2594      2595      2592      2591      2594      2596
      2592      2591      2594      2597      2593      2591      2594      2595
      2593      2591      2594      2596      2593      2591      2594      2597
      2594      2597      2600      2601      2594      2597      2600      2602
      2594      2597      2600      2603      2595      2594      2597      2598
      2595      2594      2597      2599      2595      2594      2597      2600
      2596      2594      2597      2598      2596      2594      2597      2599
      2596      2594      2597      2600      2597      2600      2603      2604
      2597      2600      2603      2605      2597      2600      2603      2606
      2598      2597      2600      2601      2598      2597      2600      2602
      2598      2597      2600      2603      2599      2597      2600      2601
      2599      2597      2600      2602      2599      2597      2600      2603
      2600      2603      2606      2607      2600      2603      2606      2608
      2600      2603      2606      2609      2601      2600      2603      2604
      2601      2600      2603      2605      2601      2600      2603      2606
      2602      2600      2603      2604      2602      2600      2603      2605
      2602      2600      2603      2606      2603      2606      2609      2610
      2603      2606      2609      2611      2604      2603      2606      2607
      2604      2603      2606      2608      2604      2603      2606      2609
      2605      2603      2606      2607      2605      2603      2606      2608
      2605      2603      2606      2609      2606      2609      2611      2612
      2606      2609      2611      2613      2607      2606      2609      2610
      2607      2606      2609      2611      2608      2606      2609      2610
      2608      2606      2609      2611      2609      2611      2613      2614
      2609      2611      2613      2615      2609      2611      2613      2616
      2610      2609      2611      2612      2610      2609      2611      2613
      2611      2613      2616      2617      2611      2613      2616      2618
      2611      2613      2616      2619      2612      2611      2613      2614
      2612      2611      2613      2615      2612      2611      2613      2616
      2613      2616      2619      2620      2613      2616      2619      2621
      2613      2616      2619      2622      2614      2613      2616      2617
      2614      2613      2616      2618      2614      2613      2616      2619
      2615      2613      2616      2617      2615      2613      2616      2618
      2615      2613      2616      2619      2616      2619      2622      2623
      2616      2619      2622      2624      2616      2619      2622      2625
      2617      2616      2619      2620      2617      2616      2619      2621
      2617      2616      2619      2622      2618      2616      2619      2620
      2618      2616      2619      2621      2618      2616      2619      2622
      2619      2622      2625      2626      2619      2622      2625      2627
      2619      2622      2625      2628      2620      2619      2622      2623
      2620      2619      2622      2624      2620      2619      2622      2625
      2621      2619      2622      2623      2621      2619      2622      2624
      2621      2619      2622      2625      2622      2625      2628      2629
      2622      2625      2628      2630      2622      2625      2628      2631
      2623      2622      2625      2626      2623      2622      2625      2627
      2623      2622      2625      2628      2624      2622      2625      2626
      2624      2622      2625      2627      2624      2622      2625      2628
      2625      2628      2631      2632      2625      2628      2631      2633
      2625      2628      2631      2634      2626      2625      2628      2629
      2626      2625      2628      2630      2626      2625      2628      2631
      2627      2625      2628      2629      2627      2625      2628      2630
      2627      2625      2628      2631      2628      2631      2634      2635
      2628      2631      2634      2636      2628      2631      2634      2637
      2629      2628      2631      2632      2629      2628      2631      2633
      2629      2628      2631      2634      2630      2628      2631      2632
      2630      2628      2631      2633      2630      2628      2631      2634
      2632      2631      2634      2635      2632      2631      2634      2636
      2632      2631      2634      2637      2633      2631      2634      2635
      2633      2631      2634      2636      2633      2631      2634      2637
      2638      2641      2644      2645      2638      2641      2644      2646
      2638      2641      2644      2647      2639      2638      2641      2642
      2639      2638      2641      2643      2639      2638      2641      2644
      2640      2638      2641      2642      2640      2638      2641      2643
      2640      2638      2641      2644      2641      2644      2647      2648
      2641      2644      2647      2649      2641      2644      2647      2650
      2642      2641      2644      2645      2642      2641      2644      2646
      2642      2641      2644      2647      2643      2641      2644      2645
      2643      2641      2644      2646      2643      2641      2644      2647
      2644      2647      2650      2651      2644      2647      2650      2652
      2644      2647      2650      2653      2645      2644      2647      2648
      2645      2644      2647      2649      2645      2644      2647      2650
      2646      2644      2647      2648      2646      2644      2647      2649
      2646      2644      2647      2650      2647      2650      2653      2654
      2647      2650      2653      2655      2647      2650      2653      2656
      2648      2647      2650      2651      2648      2647      2650      2652
      2648      2647      2650      2653      2649      2647      2650      2651
      2649      2647      2650      2652      2649      2647      2650      2653
      2650      2653      2656      2657      2650      2653      2656      2658
      2650      2653      2656      2659      2651      2650      2653      2654
      2651      2650      2653      2655      2651      2650      2653      2656
      2652      2650      2653      2654      2652      2650      2653      2655
      2652      2650      2653      2656      2653      2656      2659      2660
      2653      2656      2659      2661      2653      2656      2659      2662
      2654      2653      2656      2657      2654      2653      2656      2658
      2654      2653      2656      2659      2655      2653      2656      2657
      2655      2653      2656      2658      2655      2653      2656      2659
      2656      2659      2662      2663      2656      2659      2662      2664
      2656      2659      2662      2665      2657      2656      2659      2660
      2657      2656      2659      2661      2657      2656      2659      2662
      2658      2656      2659      2660      2658      2656      2659      2661
      2658      2656      2659      2662      2659      2662      2665      2666
      2659      2662      2665      2667      2659      2662      2665      2668
      2660      2659      2662      2663      2660      2659      2662      2664
      2660      2659      2662      2665      2661      2659      2662      2663
      2661      2659      2662      2664      2661      2659      2662      2665
      2662      2665      2668      2669      2662      2665      2668      2670
      2662      2665      2668      2671      2663      2662      2665      2666
      2663      2662      2665      2667      2663      2662      2665      2668
      2664      2662      2665      2666      2664      2662      2665      2667
      2664      2662      2665      2668      2665      2668      2671      2672
      2665      2668      2671      2673      2665      2668      2671      2674
      2666      2665      2668      2669      2666      2665      2668      2670
      2666      2665      2668      2671      2667      2665      2668      2669
      2667      2665      2668      2670      2667      2665      2668      2671
      2668      2671      2674      2675      2668      2671      2674      2676
      2668      2671      2674      2677      2669      2668      2671      2672
      2669      2668      2671      2673      2669      2668      2671      2674
      2670      2668      2671      2672      2670      2668      2671      2673
      2670      2668      2671      2674      2671      2674      2677      2678
      2671      2674      2677      2679      2671      2674      2677      2680
      2672      2671      2674      2675      2672      2671      2674      2676
      2672      2671      2674      2677      2673      2671      2674      2675
      2673      2671      2674      2676      2673      2671      2674      2677
      2675      2674      2677      2678      2675      2674      2677      2679
      2675      2674      2677      2680      2676      2674      2677      2678
      2676      2674      2677      2679      2676      2674      2677      2680
      2681      2682      2697      2698      2681      2682      2697      2699
      2681      2682      2697      2703      2682      2681      2685      2686
      2682      2681      2685      2687      2682      2681      2685      2688
      2682      2681      2689      2690      2682      2681      2689      2691
      2682      2681      2689      2692      2682      2681      2693      2694
      2682      2681      2693      2695      2682      2681      2693      2696
      2682      2697      2703      2700      2683      2682      2681      2685
      2683      2682      2681      2689      2683      2682      2681      2693
      2683      2682      2697      2698      2683      2682      2697      2699
      2683      2682      2697      2703      2684      2682      2681      2685
      2684      2682      2681      2689      2684      2682      2681      2693
      2684      2682      2697      2698      2684      2682      2697      2699
      2684      2682      2697      2703      2685      2681      2682      2697
      2685      2681      2689      2690      2685      2681      2689      2691
      2685      2681      2689      2692      2685      2681      2693      2694
      2685      2681      2693      2695      2685      2681      2693      2696
      2686      2685      2681      2689      2686      2685      2681      2693
      2687      2685      2681      2689      2687      2685      2681      2693
      2688      2685      2681      2689      2688      2685      2681      2693
      2689      2681      2682      2697      2689      2681      2693      2694
      2689      2681      2693      2695      2689      2681      2693      2696
      2690      2689      2681      2693      2691      2689      2681      2693
      2692      2689      2681      2693      2693      2681      2682      2697
      2697      2703      2700      2701      2697      2703      2700      2702
      2697      2703      2700      2704      2698      2697      2703      2700
      2699      2697      2703      2700      2700      2704      2705      2706
      2700      2704      2705      2707      2700      2704      2705      2708
      2701      2700      2704      2705      2702      2700      2704      2705
      2703      2700      2704      2705      2704      2705      2708      2709
      2704      2705      2708      2710      2704      2705      2708      2716
      2705      2708      2710      2711      2705      2708      2716      2717
      2705      2708      2716      2718      2705      2708      2716      2719
      2706      2705      2708      2709      2706      2705      2708      2710
      2706      2705      2708      2716      2707      2705      2708      2709
      2707      2705      2708      2710      2707      2705      2708      2716
      2708      2710      2711      2712      2708      2710      2711      2713
      2708      2716      2719      2720      2709      2708      2710      2711
      2709      2708      2716      2717      2709      2708      2716      2718
      2709      2708      2716      2719      2710      2708      2716      2717
      2710      2708      2716      2718      2710      2708      2716      2719
      2710      2711      2713      2714      2710      2711      2713      2715
      2710      2711      2713      2725      2711      2710      2708      2716
      2711      2713      2725      2726      2711      2713      2725      2727
      2711      2713      2725      2728      2712      2711      2713      2714
      2712      2711      2713      2715      2712      2711      2713      2725
      2713      2725      2728      2729      2713      2725      2728      2730
      2713      2725      2728      2731      2714      2713      2725      2726
      2714      2713      2725      2727      2714      2713      2725      2728
      2715      2713      2725      2726      2715      2713      2725      2727
      2715      2713      2725      2728      2716      2719      2720      2721
      2716      2719      2720      2722      2717      2716      2719      2720
      2718      2716      2719      2720      2719      2720      2722      2723
      2719      2720      2722      2724      2719      2720      2722      2772
      2720      2722      2772      2773      2720      2722      2772      2774
      2720      2722      2772      2775      2721      2720      2722      2723
      2721      2720      2722      2724      2721      2720      2722      2772
      2722      2772      2775      2776      2722      2772      2775      2777
      2722      2772      2775      2778      2723      2722      2772      2773
      2723      2722      2772      2774      2723      2722      2772      2775
      2724      2722      2772      2773      2724      2722      2772      2774
      2724      2722      2772      2775      2725      2728      2731      2732
      2725      2728      2731      2733      2725      2728      2731      2734
      2726      2725      2728      2729      2726      2725      2728      2730
      2726      2725      2728      2731      2727      2725      2728      2729
      2727      2725      2728      2730      2727      2725      2728      2731
      2728      2731      2734      2735      2728      2731      2734      2736
      2728      2731      2734      2737      2729      2728      2731      2732
      2729      2728      2731      2733      2729      2728      2731      2734
      2730      2728      2731      2732      2730      2728      2731      2733
      2730      2728      2731      2734      2731      2734      2737      2738
      2731      2734      2737      2739      2731      2734      2737      2740
      2732      2731      2734      2735      2732      2731      2734      2736
      2732      2731      2734      2737      2733      2731      2734      2735
      2733      2731      2734      2736      2733      2731      2734      2737
      2734      2737      2740      2741      2734      2737      2740      2742
      2734      2737      2740      2743      2735      2734      2737      2738
      2735      2734      2737      2739      2735      2734      2737      2740
      2736      2734      2737      2738      2736      2734      2737      2739
      2736      2734      2737      2740      2737      2740      2743      2744
      2737      2740      2743      2745      2738      2737      2740      2741
      2738      2737      2740      2742      2738      2737      2740      2743
      2739      2737      2740      2741      2739      2737      2740      2742
      2739      2737      2740      2743      2740      2743      2745      2746
      2740      2743      2745      2747      2741      2740      2743      2744
      2741      2740      2743      2745      2742      2740      2743      2744
      2742      2740      2743      2745      2743      2745      2747      2748
      2743      2745      2747      2749      2743      2745      2747      2750
      2744      2743      2745      2746      2744      2743      2745      2747
      2745      2747      2750      2751      2745      2747      2750      2752
      2745      2747      2750      2753      2746      2745      2747      2748
      2746      2745      2747      2749      2746      2745      2747      2750
      2747      2750      2753      2754      2747      2750      2753      2755
      2747      2750      2753      2756      2748      2747      2750      2751
      2748      2747      2750      2752      2748      2747      2750      2753
      2749      2747      2750      2751      2749      2747      2750      2752
      2749      2747      2750      2753      2750      2753      2756      2757
      2750      2753      2756      2758      2750      2753      2756      2759
      2751      2750      2753      2754      2751      2750      2753      2755
      2751      2750      2753      2756      2752      2750      2753      2754
      2752      2750      2753      2755      2752      2750      2753      2756
      2753      2756      2759      2760      2753      2756      2759      2761
      2753      2756      2759      2762      2754      2753      2756      2757
      2754      2753      2756      2758      2754      2753      2756      2759
      2755      2753      2756      2757      2755      2753      2756      2758
      2755      2753      2756      2759      2756      2759      2762      2763
      2756      2759      2762      2764      2756      2759      2762      2765
      2757      2756      2759      2760      2757      2756      2759      2761
      2757      2756      2759      2762      2758      2756      2759      2760
      2758      2756      2759      2761      2758      2756      2759      2762
      2759      2762      2765      2766      2759      2762      2765      2767
      2759      2762      2765      2768      2760      2759      2762      2763
      2760      2759      2762      2764      2760      2759      2762      2765
      2761      2759      2762      2763      2761      2759      2762      2764
      2761      2759      2762      2765      2762      2765      2768      2769
      2762      2765      2768      2770      2762      2765      2768      2771
      2763      2762      2765      2766      2763      2762      2765      2767
      2763      2762      2765      2768      2764      2762      2765      2766
      2764      2762      2765      2767      2764      2762      2765      2768
      2766      2765      2768      2769      2766      2765      2768      2770
      2766      2765      2768      2771      2767      2765      2768      2769
      2767      2765      2768      2770      2767      2765      2768      2771
      2772      2775      2778      2779      2772      2775      2778      2780
      2772      2775      2778      2781      2773      2772      2775      2776
      2773      2772      2775      2777      2773      2772      2775      2778
      2774      2772      2775      2776      2774      2772      2775      2777
      2774      2772      2775      2778      2775      2778      2781      2782
      2775      2778      2781      2783      2775      2778      2781      2784
      2776      2775      2778      2779      2776      2775      2778      2780
      2776      2775      2778      2781      2777      2775      2778      2779
      2777      2775      2778      2780      2777      2775      2778      2781
      2778      2781      2784      2785      2778      2781      2784      2786
      2778      2781      2784      2787      2779      2778      2781      2782
      2779      2778      2781      2783      2779      2778      2781      2784
      2780      2778      2781      2782      2780      2778      2781      2783
      2780      2778      2781      2784      2781      2784      2787      2788
      2781      2784      2787      2789      2781      2784      2787      2790
      2782      2781      2784      2785      2782      2781      2784      2786
      2782      2781      2784      2787      2783      2781      2784      2785
      2783      2781      2784      2786      2783      2781      2784      2787
      2784      2787      2790      2791      2784      2787      2790      2792
      2784      2787      2790      2793      2785      2784      2787      2788
      2785      2784      2787      2789      2785      2784      2787      2790
      2786      2784      2787      2788      2786      2784      2787      2789
      2786      2784      2787      2790      2787      2790      2793      2794
      2787      2790      2793      2795      2787      2790      2793      2796
      2788      2787      2790      2791      2788      2787      2790      2792
      2788      2787      2790      2793      2789      2787      2790      2791
      2789      2787      2790      2792      2789      2787      2790      2793
      2790      2793      2796      2797      2790      2793      2796      2798
      2790      2793      2796      2799      2791      2790      2793      2794
      2791      2790      2793      2795      2791      2790      2793      2796
      2792      2790      2793      2794      2792      2790      2793      2795
      2792      2790      2793      2796      2793      2796      2799      2800
      2793      2796      2799      2801      2793      2796      2799      2802
      2794      2793      2796      2797      2794      2793      2796      2798
      2794      2793      2796      2799      2795      2793      2796      2797
      2795      2793      2796      2798      2795      2793      2796      2799
      2796      2799      2802      2803      2796      2799      2802      2804
      2796      2799      2802      2805      2797      2796      2799      2800
      2797      2796      2799      2801      2797      2796      2799      2802
      2798      2796      2799      2800      2798      2796      2799      2801
      2798      2796      2799      2802      2799      2802      2805      2806
      2799      2802      2805      2807      2799      2802      2805      2808
      2800      2799      2802      2803      2800      2799      2802      2804
      2800      2799      2802      2805      2801      2799      2802      2803
      2801      2799      2802      2804      2801      2799      2802      2805
      2802      2805      2808      2809      2802      2805      2808      2810
      2802      2805      2808      2811      2803      2802      2805      2806
      2803      2802      2805      2807      2803      2802      2805      2808
      2804      2802      2805      2806      2804      2802      2805      2807
      2804      2802      2805      2808      2805      2808      2811      2812
      2805      2808      2811      2813      2805      2808      2811      2814
      2806      2805      2808      2809      2806      2805      2808      2810
      2806      2805      2808      2811      2807      2805      2808      2809
      2807      2805      2808      2810      2807      2805      2808      2811
      2809      2808      2811      2812      2809      2808      2811      2813
      2809      2808      2811      2814      2810      2808      2811      2812
      2810      2808      2811      2813      2810      2808      2811      2814
      2815      2816      2831      2832      2815      2816      2831      2833
      2815      2816      2831      2837      2816      2815      2819      2820
      2816      2815      2819      2821      2816      2815      2819      2822
      2816      2815      2823      2824      2816      2815      2823      2825
      2816      2815      2823      2826      2816      2815      2827      2828
      2816      2815      2827      2829      2816      2815      2827      2830
      2816      2831      2837      2834      2817      2816      2815      2819
      2817      2816      2815      2823      2817      2816      2815      2827
      2817      2816      2831      2832      2817      2816      2831      2833
      2817      2816      2831      2837      2818      2816      2815      2819
      2818      2816      2815      2823      2818      2816      2815      2827
      2818      2816      2831      2832      2818      2816      2831      2833
      2818      2816      2831      2837      2819      2815      2816      2831
      2819      2815      2823      2824      2819      2815      2823      2825
      2819      2815      2823      2826      2819      2815      2827      2828
      2819      2815      2827      2829      2819      2815      2827      2830
      2820      2819      2815      2823      2820      2819      2815      2827
      2821      2819      2815      2823      2821      2819      2815      2827
      2822      2819      2815      2823      2822      2819      2815      2827
      2823      2815      2816      2831      2823      2815      2827      2828
      2823      2815      2827      2829      2823      2815      2827      2830
      2824      2823      2815      2827      2825      2823      2815      2827
      2826      2823      2815      2827      2827      2815      2816      2831
      2831      2837      2834      2835      2831      2837      2834      2836
      2831      2837      2834      2838      2832      2831      2837      2834
      2833      2831      2837      2834      2834      2838      2839      2840
      2834      2838      2839      2841      2834      2838      2839      2842
      2835      2834      2838      2839      2836      2834      2838      2839
      2837      2834      2838      2839      2838      2839      2842      2843
      2838      2839      2842      2844      2838      2839      2842      2850
      2839      2842      2844      2845      2839      2842      2850      2851
      2839      2842      2850      2852      2839      2842      2850      2853
      2840      2839      2842      2843      2840      2839      2842      2844
      2840      2839      2842      2850      2841      2839      2842      2843
      2841      2839      2842      2844      2841      2839      2842      2850
      2842      2844      2845      2846      2842      2844      2845      2847
      2842      2850      2853      2854      2843      2842      2844      2845
      2843      2842      2850      2851      2843      2842      2850      2852
      2843      2842      2850      2853      2844      2842      2850      2851
      2844      2842      2850      2852      2844      2842      2850      2853
      2844      2845      2847      2848      2844      2845      2847      2849
      2844      2845      2847      2859      2845      2844      2842      2850
      2845      2847      2859      2860      2845      2847      2859      2861
      2845      2847      2859      2862      2846      2845      2847      2848
      2846      2845      2847      2849      2846      2845      2847      2859
      2847      2859      2862      2863      2847      2859      2862      2864
      2847      2859      2862      2865      2848      2847      2859      2860
      2848      2847      2859      2861      2848      2847      2859      2862
      2849      2847      2859      2860      2849      2847      2859      2861
      2849      2847      2859      2862      2850      2853      2854      2855
      2850      2853      2854      2856      2851      2850      2853      2854
      2852      2850      2853      2854      2853      2854      2856      2857
      2853      2854      2856      2858      2853      2854      2856      2906
      2854      2856      2906      2907      2854      2856      2906      2908
      2854      2856      2906      2909      2855      2854      2856      2857
      2855      2854      2856      2858      2855      2854      2856      2906
      2856      2906      2909      2910      2856      2906      2909      2911
      2856      2906      2909      2912      2857      2856      2906      2907
      2857      2856      2906      2908      2857      2856      2906      2909
      2858      2856      2906      2907      2858      2856      2906      2908
      2858      2856      2906      2909      2859      2862      2865      2866
      2859      2862      2865      2867      2859      2862      2865      2868
      2860      2859      2862      2863      2860      2859      2862      2864
      2860      2859      2862      2865      2861      2859      2862      2863
      2861      2859      2862      2864      2861      2859      2862      2865
      2862      2865      2868      2869      2862      2865      2868      2870
      2862      2865      2868      2871      2863      2862      2865      2866
      2863      2862      2865      2867      2863      2862      2865      2868
      2864      2862      2865      2866      2864      2862      2865      2867
      2864      2862      2865      2868      2865      2868      2871      2872
      2865      2868      2871      2873      2865      2868      2871      2874
      2866      2865      2868      2869      2866      2865      2868      2870
      2866      2865      2868      2871      2867      2865      2868      2869
      2867      2865      2868      2870      2867      2865      2868      2871
      2868      2871      2874      2875      2868      2871      2874      2876
      2868      2871      2874      2877      2869      2868      2871      2872
      2869      2868      2871      2873      2869      2868      2871      2874
      2870      2868      2871      2872      2870      2868      2871      2873
      2870      2868      2871      2874      2871      2874      2877      2878
      2871      2874      2877      2879      2872      2871      2874      2875
      2872      2871      2874      2876      2872      2871      2874      2877
      2873      2871      2874      2875      2873      2871      2874      2876
      2873      2871      2874      2877      2874      2877      2879      2880
      2874      2877      2879      2881      2875      2874      2877      2878
      2875      2874      2877      2879      2876      2874      2877      2878
      2876      2874      2877      2879      2877      2879      2881      2882
      2877      2879      2881      2883      2877      2879      2881      2884
      2878      2877      2879      2880      2878      2877      2879      2881
      2879      2881      2884      2885      2879      2881      2884      2886
      2879      2881      2884      2887      2880      2879      2881      2882
      2880      2879      2881      2883      2880      2879      2881      2884
      2881      2884      2887      2888      2881      2884      2887      2889
      2881      2884      2887      2890      2882      2881      2884      2885
      2882      2881      2884      2886      2882      2881      2884      2887
      2883      2881      2884      2885      2883      2881      2884      2886
      2883      2881      2884      2887      2884      2887      2890      2891
      2884      2887      2890      2892      2884      2887      2890      2893
      2885      2884      2887      2888      2885      2884      2887      2889
      2885      2884      2887      2890      2886      2884      2887      2888
      2886      2884      2887      2889      2886      2884      2887      2890
      2887      2890      2893      2894      2887      2890      2893      2895
      2887      2890      2893      2896      2888      2887      2890      2891
      2888      2887      2890      2892      2888      2887      2890      2893
      2889      2887      2890      2891      2889      2887      2890      2892
      2889      2887      2890      2893      2890      2893      2896      2897
      2890      2893      2896      2898      2890      2893      2896      2899
      2891      2890      2893      2894      2891      2890      2893      2895
      2891      2890      2893      2896      2892      2890      2893      2894
      2892      2890      2893      2895      2892      2890      2893      2896
      2893      2896      2899      2900      2893      2896      2899      2901
      2893      2896      2899      2902      2894      2893      2896      2897
      2894      2893      2896      2898      2894      2893      2896      2899
      2895      2893      2896      2897      2895      2893      2896      2898
      2895      2893      2896      2899      2896      2899      2902      2903
      2896      2899      2902      2904      2896      2899      2902      2905
      2897      2896      2899      2900      2897      2896      2899      2901
      2897      2896      2899      2902      2898      2896      2899      2900
      2898      2896      2899      2901      2898      2896      2899      2902
      2900      2899      2902      2903      2900      2899      2902      2904
      2900      2899      2902      2905      2901      2899      2902      2903
      2901      2899      2902      2904      2901      2899      2902      2905
      2906      2909      2912      2913      2906      2909      2912      2914
      2906      2909      2912      2915      2907      2906      2909      2910
      2907      2906      2909      2911      2907      2906      2909      2912
      2908      2906      2909      2910      2908      2906      2909      2911
      2908      2906      2909      2912      2909      2912      2915      2916
      2909      2912      2915      2917      2909      2912      2915      2918
      2910      2909      2912      2913      2910      2909      2912      2914
      2910      2909      2912      2915      2911      2909      2912      2913
      2911      2909      2912      2914      2911      2909      2912      2915
      2912      2915      2918      2919      2912      2915      2918      2920
      2912      2915      2918      2921      2913      2912      2915      2916
      2913      2912      2915      2917      2913      2912      2915      2918
      2914      2912      2915      2916      2914      2912      2915      2917
      2914      2912      2915      2918      2915      2918      2921      2922
      2915      2918      2921      2923      2915      2918      2921      2924
      2916      2915      2918      2919      2916      2915      2918      2920
      2916      2915      2918      2921      2917      2915      2918      2919
      2917      2915      2918      2920      2917      2915      2918      2921
      2918      2921      2924      2925      2918      2921      2924      2926
      2918      2921      2924      2927      2919      2918      2921      2922
      2919      2918      2921      2923      2919      2918      2921      2924
      2920      2918      2921      2922      2920      2918      2921      2923
      2920      2918      2921      2924      2921      2924      2927      2928
      2921      2924      2927      2929      2921      2924      2927      2930
      2922      2921      2924      2925      2922      2921      2924      2926
      2922      2921      2924      2927      2923      2921      2924      2925
      2923      2921      2924      2926      2923      2921      2924      2927
      2924      2927      2930      2931      2924      2927      2930      2932
      2924      2927      2930      2933      2925      2924      2927      2928
      2925      2924      2927      2929      2925      2924      2927      2930
      2926      2924      2927      2928      2926      2924      2927      2929
      2926      2924      2927      2930      2927      2930      2933      2934
      2927      2930      2933      2935      2927      2930      2933      2936
      2928      2927      2930      2931      2928      2927      2930      2932
      2928      2927      2930      2933      2929      2927      2930      2931
      2929      2927      2930      2932      2929      2927      2930      2933
      2930      2933      2936      2937      2930      2933      2936      2938
      2930      2933      2936      2939      2931      2930      2933      2934
      2931      2930      2933      2935      2931      2930      2933      2936
      2932      2930      2933      2934      2932      2930      2933      2935
      2932      2930      2933      2936      2933      2936      2939      2940
      2933      2936      2939      2941      2933      2936      2939      2942
      2934      2933      2936      2937      2934      2933      2936      2938
      2934      2933      2936      2939      2935      2933      2936      2937
      2935      2933      2936      2938      2935      2933      2936      2939
      2936      2939      2942      2943      2936      2939      2942      2944
      2936      2939      2942      2945      2937      2936      2939      2940
      2937      2936      2939      2941      2937      2936      2939      2942
      2938      2936      2939      2940      2938      2936      2939      2941
      2938      2936      2939      2942      2939      2942      2945      2946
      2939      2942      2945      2947      2939      2942      2945      2948
      2940      2939      2942      2943      2940      2939      2942      2944
      2940      2939      2942      2945      2941      2939      2942      2943
      2941      2939      2942      2944      2941      2939      2942      2945
      2943      2942      2945      2946      2943      2942      2945      2947
      2943      2942      2945      2948      2944      2942      2945      2946
      2944      2942      2945      2947      2944      2942      2945      2948
      2949      2950      2965      2966      2949      2950      2965      2967
      2949      2950      2965      2971      2950      2949      2953      2954
      2950      2949      2953      2955      2950      2949      2953      2956
      2950      2949      2957      2958      2950      2949      2957      2959
      2950      2949      2957      2960      2950      2949      2961      2962
      2950      2949      2961      2963      2950      2949      2961      2964
      2950      2965      2971      2968      2951      2950      2949      2953
      2951      2950      2949      2957      2951      2950      2949      2961
      2951      2950      2965      2966      2951      2950      2965      2967
      2951      2950      2965      2971      2952      2950      2949      2953
      2952      2950      2949      2957      2952      2950      2949      2961
      2952      2950      2965      2966      2952      2950      2965      2967
      2952      2950      2965      2971      2953      2949      2950      2965
      2953      2949      2957      2958      2953      2949      2957      2959
      2953      2949      2957      2960      2953      2949      2961      2962
      2953      2949      2961      2963      2953      2949      2961      2964
      2954      2953      2949      2957      2954      2953      2949      2961
      2955      2953      2949      2957      2955      2953      2949      2961
      2956      2953      2949      2957      2956      2953      2949      2961
      2957      2949      2950      2965      2957      2949      2961      2962
      2957      2949      2961      2963      2957      2949      2961      2964
      2958      2957      2949      2961      2959      2957      2949      2961
      2960      2957      2949      2961      2961      2949      2950      2965
      2965      2971      2968      2969      2965      2971      2968      2970
      2965      2971      2968      2972      2966      2965      2971      2968
      2967      2965      2971      2968      2968      2972      2973      2974
      2968      2972      2973      2975      2968      2972      2973      2976
      2969      2968      2972      2973      2970      2968      2972      2973
      2971      2968      2972      2973      2972      2973      2976      2977
      2972      2973      2976      2978      2972      2973      2976      2984
      2973      2976      2978      2979      2973      2976      2984      2985
      2973      2976      2984      2986      2973      2976      2984      2987
      2974      2973      2976      2977      2974      2973      2976      2978
      2974      2973      2976      2984      2975      2973      2976      2977
      2975      2973      2976      2978      2975      2973      2976      2984
      2976      2978      2979      2980      2976      2978      2979      2981
      2976      2984      2987      2988      2977      2976      2978      2979
      2977      2976      2984      2985      2977      2976      2984      2986
      2977      2976      2984      2987      2978      2976      2984      2985
      2978      2976      2984      2986      2978      2976      2984      2987
      2978      2979      2981      2982      2978      2979      2981      2983
      2978      2979      2981      2993      2979      2978      2976      2984
      2979      2981      2993      2994      2979      2981      2993      2995
      2979      2981      2993      2996      2980      2979      2981      2982
      2980      2979      2981      2983      2980      2979      2981      2993
      2981      2993      2996      2997      2981      2993      2996      2998
      2981      2993      2996      2999      2982      2981      2993      2994
      2982      2981      2993      2995      2982      2981      2993      2996
      2983      2981      2993      2994      2983      2981      2993      2995
      2983      2981      2993      2996      2984      2987      2988      2989
      2984      2987      2988      2990      2985      2984      2987      2988
      2986      2984      2987      2988      2987      2988      2990      2991
      2987      2988      2990      2992      2987      2988      2990      3040
      2988      2990      3040      3041      2988      2990      3040      3042
      2988      2990      3040      3043      2989      2988      2990      2991
      2989      2988      2990      2992      2989      2988      2990      3040
      2990      3040      3043      3044      2990      3040      3043      3045
      2990      3040      3043      3046      2991      2990      3040      3041
      2991      2990      3040      3042      2991      2990      3040      3043
      2992      2990      3040      3041      2992      2990      3040      3042
      2992      2990      3040      3043      2993      2996      2999      3000
      2993      2996      2999      3001      2993      2996      2999      3002
      2994      2993      2996      2997      2994      2993      2996      2998
      2994      2993      2996      2999      2995      2993      2996      2997
      2995      2993      2996      2998      2995      2993      2996      2999
      2996      2999      3002      3003      2996      2999      3002      3004
      2996      2999      3002      3005      2997      2996      2999      3000
      2997      2996      2999      3001      2997      2996      2999      3002
      2998      2996      2999      3000      2998      2996      2999      3001
      2998      2996      2999      3002      2999      3002      3005      3006
      2999      3002      3005      3007      2999      3002      3005      3008
      3000      2999      3002      3003      3000      2999      3002      3004
      3000      2999      3002      3005      3001      2999      3002      3003
      3001      2999      3002      3004      3001      2999      3002      3005
      3002      3005      3008      3009      3002      3005      3008      3010
      3002      3005      3008      3011      3003      3002      3005      3006
      3003      3002      3005      3007      3003      3002      3005      3008
      3004      3002      3005      3006      3004      3002      3005      3007
      3004      3002      3005      3008      3005      3008      3011      3012
      3005      3008      3011      3013      3006      3005      3008      3009
      3006      3005      3008      3010      3006      3005      3008      3011
      3007      3005      3008      3009      3007      3005      3008      3010
      3007      3005      3008      3011      3008      3011      3013      3014
      3008      3011      3013      3015      3009      3008      3011      3012
      3009      3008      3011      3013      3010      3008      3011      3012
      3010      3008      3011      3013      3011      3013      3015      3016
      3011      3013      3015      3017      3011      3013      3015      3018
      3012      3011      3013      3014      3012      3011      3013      3015
      3013      3015      3018      3019      3013      3015      3018      3020
      3013      3015      3018      3021      3014      3013      3015      3016
      3014      3013      3015      3017      3014      3013      3015      3018
      3015      3018      3021      3022      3015      3018      3021      3023
      3015      3018      3021      3024      3016      3015      3018      3019
      3016      3015      3018      3020      3016      3015      3018      3021
      3017      3015      3018      3019      3017      3015      3018      3020
      3017      3015      3018      3021      3018      3021      3024      3025
      3018      3021      3024      3026      3018      3021      3024      3027
      3019      3018      3021      3022      3019      3018      3021      3023
      3019      3018      3021      3024      3020      3018      3021      3022
      3020      3018      3021      3023      3020      3018      3021      3024
      3021      3024      3027      3028      3021      3024      3027      3029
      3021      3024      3027      3030      3022      3021      3024      3025
      3022      3021      3024      3026      3022      3021      3024      3027
      3023      3021      3024      3025      3023      3021      3024      3026
      3023      3021      3024      3027      3024      3027      3030      3031
      3024      3027      3030      3032      3024      3027      3030      3033
      3025      3024      3027      3028      3025      3024      3027      3029
      3025      3024      3027      3030      3026      3024      3027      3028
      3026      3024      3027      3029      3026      3024      3027      3030
      3027      3030      3033      3034      3027      3030      3033      3035
      3027      3030      3033      3036      3028      3027      3030      3031
      3028      3027      3030      3032      3028      3027      3030      3033
      3029      3027      3030      3031      3029      3027      3030      3032
      3029      3027      3030      3033      3030      3033      3036      3037
      3030      3033      3036      3038      3030      3033      3036      3039
      3031      3030      3033      3034      3031      3030      3033      3035
      3031      3030      3033      3036      3032      3030      3033      3034
      3032      3030      3033      3035      3032      3030      3033      3036
      3034      3033      3036      3037      3034      3033      3036      3038
      3034      3033      3036      3039      3035      3033      3036      3037
      3035      3033      3036      3038      3035      3033      3036      3039
      3040      3043      3046      3047      3040      3043      3046      3048
      3040      3043      3046      3049      3041      3040      3043      3044
      3041      3040      3043      3045      3041      3040      3043      3046
      3042      3040      3043      3044      3042      3040      3043      3045
      3042      3040      3043      3046      3043      3046      3049      3050
      3043      3046      3049      3051      3043      3046      3049      3052
      3044      3043      3046      3047      3044      3043      3046      3048
      3044      3043      3046      3049      3045      3043      3046      3047
      3045      3043      3046      3048      3045      3043      3046      3049
      3046      3049      3052      3053      3046      3049      3052      3054
      3046      3049      3052      3055      3047      3046      3049      3050
      3047      3046      3049      3051      3047      3046      3049      3052
      3048      3046      3049      3050      3048      3046      3049      3051
      3048      3046      3049      3052      3049      3052      3055      3056
      3049      3052      3055      3057      3049      3052      3055      3058
      3050      3049      3052      3053      3050      3049      3052      3054
      3050      3049      3052      3055      3051      3049      3052      3053
      3051      3049      3052      3054      3051      3049      3052      3055
      3052      3055      3058      3059      3052      3055      3058      3060
      3052      3055      3058      3061      3053      3052      3055      3056
      3053      3052      3055      3057      3053      3052      3055      3058
      3054      3052      3055      3056      3054      3052      3055      3057
      3054      3052      3055      3058      3055      3058      3061      3062
      3055      3058      3061      3063      3055      3058      3061      3064
      3056      3055      3058      3059      3056      3055      3058      3060
      3056      3055      3058      3061      3057      3055      3058      3059
      3057      3055      3058      3060      3057      3055      3058      3061
      3058      3061      3064      3065      3058      3061      3064      3066
      3058      3061      3064      3067      3059      3058      3061      3062
      3059      3058      3061      3063      3059      3058      3061      3064
      3060      3058      3061      3062      3060      3058      3061      3063
      3060      3058      3061      3064      3061      3064      3067      3068
      3061      3064      3067      3069      3061      3064      3067      3070
      3062      3061      3064      3065      3062      3061      3064      3066
      3062      3061      3064      3067      3063      3061      3064      3065
      3063      3061      3064      3066      3063      3061      3064      3067
      3064      3067      3070      3071      3064      3067      3070      3072
      3064      3067      3070      3073      3065      3064      3067      3068
      3065      3064      3067      3069      3065      3064      3067      3070
      3066      3064      3067      3068      3066      3064      3067      3069
      3066      3064      3067      3070      3067      3070      3073      3074
      3067      3070      3073      3075      3067      3070      3073      3076
      3068      3067      3070      3071      3068      3067      3070      3072
      3068      3067      3070      3073      3069      3067      3070      3071
      3069      3067      3070      3072      3069      3067      3070      3073
      3070      3073      3076      3077      3070      3073      3076      3078
      3070      3073      3076      3079      3071      3070      3073      3074
      3071      3070      3073      3075      3071      3070      3073      3076
      3072      3070      3073      3074      3072      3070      3073      3075
      3072      3070      3073      3076      3073      3076      3079      3080
      3073      3076      3079      3081      3073      3076      3079      3082
      3074      3073      3076      3077      3074      3073      3076      3078
      3074      3073      3076      3079      3075      3073      3076      3077
      3075      3073      3076      3078      3075      3073      3076      3079
      3077      3076      3079      3080      3077      3076      3079      3081
      3077      3076      3079      3082      3078      3076      3079      3080
      3078      3076      3079      3081      3078      3076      3079      3082
      3083      3084      3099      3100      3083      3084      3099      3101
      3083      3084      3099      3105      3084      3083      3087      3088
      3084      3083      3087      3089      3084      3083      3087      3090
      3084      3083      3091      3092      3084      3083      3091      3093
      3084      3083      3091      3094      3084      3083      3095      3096
      3084      3083      3095      3097      3084      3083      3095      3098
      3084      3099      3105      3102      3085      3084      3083      3087
      3085      3084      3083      3091      3085      3084      3083      3095
      3085      3084      3099      3100      3085      3084      3099      3101
      3085      3084      3099      3105      3086      3084      3083      3087
      3086      3084      3083      3091      3086      3084      3083      3095
      3086      3084      3099      3100      3086      3084      3099      3101
      3086      3084      3099      3105      3087      3083      3084      3099
      3087      3083      3091      3092      3087      3083      3091      3093
      3087      3083      3091      3094      3087      3083      3095      3096
      3087      3083      3095      3097      3087      3083      3095      3098
      3088      3087      3083      3091      3088      3087      3083      3095
      3089      3087      3083      3091      3089      3087      3083      3095
      3090      3087      3083      3091      3090      3087      3083      3095
      3091      3083      3084      3099      3091      3083      3095      3096
      3091      3083      3095      3097      3091      3083      3095      3098
      3092      3091      3083      3095      3093      3091      3083      3095
      3094      3091      3083      3095      3095      3083      3084      3099
      3099      3105      3102      3103      3099      3105      3102      3104
      3099      3105      3102      3106      3100      3099      3105      3102
      3101      3099      3105      3102      3102      3106      3107      3108
      3102      3106      3107      3109      3102      3106      3107      3110
      3103      3102      3106      3107      3104      3102      3106      3107
      3105      3102      3106      3107      3106      3107      3110      3111
      3106      3107      3110      3112      3106      3107      3110      3118
      3107      3110      3112      3113      3107      3110      3118      3119
      3107      3110      3118      3120      3107      3110      3118      3121
      3108      3107      3110      3111      3108      3107      3110      3112
      3108      3107      3110      3118      3109      3107      3110      3111
      3109      3107      3110      3112      3109      3107      3110      3118
      3110      3112      3113      3114      3110      3112      3113      3115
      3110      3118      3121      3122      3111      3110      3112      3113
      3111      3110      3118      3119      3111      3110      3118      3120
      3111      3110      3118      3121      3112      3110      3118      3119
      3112      3110      3118      3120      3112      3110      3118      3121
      3112      3113      3115      3116      3112      3113      3115      3117
      3112      3113      3115      3127      3113      3112      3110      3118
      3113      3115      3127      3128      3113      3115      3127      3129
      3113      3115      3127      3130      3114      3113      3115      3116
      3114      3113      3115      3117      3114      3113      3115      3127
      3115      3127      3130      3131      3115      3127      3130      3132
      3115      3127      3130      3133      3116      3115      3127      3128
      3116      3115      3127      3129      3116      3115      3127      3130
      3117      3115      3127      3128      3117      3115      3127      3129
      3117      3115      3127      3130      3118      3121      3122      3123
      3118      3121      3122      3124      3119      3118      3121      3122
      3120      3118      3121      3122      3121      3122      3124      3125
      3121      3122      3124      3126      3121      3122      3124      3174
      3122      3124      3174      3175      3122      3124      3174      3176
      3122      3124      3174      3177      3123      3122      3124      3125
      3123      3122      3124      3126      3123      3122      3124      3174
      3124      3174      3177      3178      3124      3174      3177      3179
      3124      3174      3177      3180      3125      3124      3174      3175
      3125      3124      3174      3176      3125      3124      3174      3177
      3126      3124      3174      3175      3126      3124      3174      3176
      3126      3124      3174      3177      3127      3130      3133      3134
      3127      3130      3133      3135      3127      3130      3133      3136
      3128      3127      3130      3131      3128      3127      3130      3132
      3128      3127      3130      3133      3129      3127      3130      3131
      3129      3127      3130      3132      3129      3127      3130      3133
      3130      3133      3136      3137      3130      3133      3136      3138
      3130      3133      3136      3139      3131      3130      3133      3134
      3131      3130      3133      3135      3131      3130      3133      3136
      3132      3130      3133      3134      3132      3130      3133      3135
      3132      3130      3133      3136      3133      3136      3139      3140
      3133      3136      3139      3141      3133      3136      3139      3142
      3134      3133      3136      3137      3134      3133      3136      3138
      3134      3133      3136      3139      3135      3133      3136      3137
      3135      3133      3136      3138      3135      3133      3136      3139
      3136      3139      3142      3143      3136      3139      3142      3144
      3136      3139      3142      3145      3137      3136      3139      3140
      3137      3136      3139      3141      3137      3136      3139      3142
      3138      3136      3139      3140      3138      3136      3139      3141
      3138      3136      3139      3142      3139      3142      3145      3146
      3139      3142      3145      3147      3140      3139      3142      3143
      3140      3139      3142      3144      3140      3139      3142      3145
      3141      3139      3142      3143      3141      3139      3142      3144
      3141      3139      3142      3145      3142      3145      3147      3148
      3142      3145      3147      3149      3143      3142      3145      3146
      3143      3142      3145      3147      3144      3142      3145      3146
      3144      3142      3145      3147      3145      3147      3149      3150
      3145      3147      3149      3151      3145      3147      3149      3152
      3146      3145      3147      3148      3146      3145      3147      3149
      3147      3149      3152      3153      3147      3149      3152      3154
      3147      3149      3152      3155      3148      3147      3149      3150
      3148      3147      3149      3151      3148      3147      3149      3152
      3149      3152      3155      3156      3149      3152      3155      3157
      3149      3152      3155      3158      3150      3149      3152      3153
      3150      3149      3152      3154      3150      3149      3152      3155
      3151      3149      3152      3153      3151      3149      3152      3154
      3151      3149      3152      3155      3152      3155      3158      3159
      3152      3155      3158      3160      3152      3155      3158      3161
      3153      3152      3155      3156      3153      3152      3155      3157
      3153      3152      3155      3158      3154      3152      3155      3156
      3154      3152      3155      3157      3154      3152      3155      3158
      3155      3158      3161      3162      3155      3158      3161      3163
      3155      3158      3161      3164      3156      3155      3158      3159
      3156      3155      3158      3160      3156      3155      3158      3161
      3157      3155      3158      3159      3157      3155      3158      3160
      3157      3155      3158      3161      3158      3161      3164      3165
      3158      3161      3164      3166      3158      3161      3164      3167
      3159      3158      3161      3162      3159      3158      3161      3163
      3159      3158      3161      3164      3160      3158      3161      3162
      3160      3158      3161      3163      3160      3158      3161      3164
      3161      3164      3167      3168      3161      3164      3167      3169
      3161      3164      3167      3170      3162      3161      3164      3165
      3162      3161      3164      3166      3162      3161      3164      3167
      3163      3161      3164      3165      3163      3161      3164      3166
      3163      3161      3164      3167      3164      3167      3170      3171
      3164      3167      3170      3172      3164      3167      3170      3173
      3165      3164      3167      3168      3165      3164      3167      3169
      3165      3164      3167      3170      3166      3164      3167      3168
      3166      3164      3167      3169      3166      3164      3167      3170
      3168      3167      3170      3171      3168      3167      3170      3172
      3168      3167      3170      3173      3169      3167      3170      3171
      3169      3167      3170      3172      3169      3167      3170      3173
      3174      3177      3180      3181      3174      3177      3180      3182
      3174      3177      3180      3183      3175      3174      3177      3178
      3175      3174      3177      3179      3175      3174      3177      3180
      3176      3174      3177      3178      3176      3174      3177      3179
      3176      3174      3177      3180      3177      3180      3183      3184
      3177      3180      3183      3185      3177      3180      3183      3186
      3178      3177      3180      3181      3178      3177      3180      3182
      3178      3177      3180      3183      3179      3177      3180      3181
      3179      3177      3180      3182      3179      3177      3180      3183
      3180      3183      3186      3187      3180      3183      3186      3188
      3180      3183      3186      3189      3181      3180      3183      3184
      3181      3180      3183      3185      3181      3180      3183      3186
      3182      3180      3183      3184      3182      3180      3183      3185
      3182      3180      3183      3186      3183      3186      3189      3190
      3183      3186      3189      3191      3183      3186      3189      3192
      3184      3183      3186      3187      3184      3183      3186      3188
      3184      3183      3186      3189      3185      3183      3186      3187
      3185      3183      3186      3188      3185      3183      3186      3189
      3186      3189      3192      3193      3186      3189      3192      3194
      3186      3189      3192      3195      3187      3186      3189      3190
      3187      3186      3189      3191      3187      3186      3189      3192
      3188      3186      3189      3190      3188      3186      3189      3191
      3188      3186      3189      3192      3189      3192      3195      3196
      3189      3192      3195      3197      3189      3192      3195      3198
      3190      3189      3192      3193      3190      3189      3192      3194
      3190      3189      3192      3195      3191      3189      3192      3193
      3191      3189      3192      3194      3191      3189      3192      3195
      3192      3195      3198      3199      3192      3195      3198      3200
      3192      3195      3198      3201      3193      3192      3195      3196
      3193      3192      3195      3197      3193      3192      3195      3198
      3194      3192      3195      3196      3194      3192      3195      3197
      3194      3192      3195      3198      3195      3198      3201      3202
      3195      3198      3201      3203      3195      3198      3201      3204
      3196      3195      3198      3199      3196      3195      3198      3200
      3196      3195      3198      3201      3197      3195      3198      3199
      3197      3195      3198      3200      3197      3195      3198      3201
      3198      3201      3204      3205      3198      3201      3204      3206
      3198      3201      3204      3207      3199      3198      3201      3202
      3199      3198      3201      3203      3199      3198      3201      3204
      3200      3198      3201      3202      3200      3198      3201      3203
      3200      3198      3201      3204      3201      3204      3207      3208
      3201      3204      3207      3209      3201      3204      3207      3210
      3202      3201      3204      3205      3202      3201      3204      3206
      3202      3201      3204      3207      3203      3201      3204      3205
      3203      3201      3204      3206      3203      3201      3204      3207
      3204      3207      3210      3211      3204      3207      3210      3212
      3204      3207      3210      3213      3205      3204      3207      3208
      3205      3204      3207      3209      3205      3204      3207      3210
      3206      3204      3207      3208      3206      3204      3207      3209
      3206      3204      3207      3210      3207      3210      3213      3214
      3207      3210      3213      3215      3207      3210      3213      3216
      3208      3207      3210      3211      3208      3207      3210      3212
      3208      3207      3210      3213      3209      3207      3210      3211
      3209      3207      3210      3212      3209      3207      3210      3213
      3211      3210      3213      3214      3211      3210      3213      3215
      3211      3210      3213      3216      3212      3210      3213      3214
      3212      3210      3213      3215      3212      3210      3213      3216
      3217      3218      3233      3234      3217      3218      3233      3235
      3217      3218      3233      3239      3218      3217      3221      3222
      3218      3217      3221      3223      3218      3217      3221      3224
      3218      3217      3225      3226      3218      3217      3225      3227
      3218      3217      3225      3228      3218      3217      3229      3230
      3218      3217      3229      3231      3218      3217      3229      3232
      3218      3233      3239      3236      3219      3218      3217      3221
      3219      3218      3217      3225      3219      3218      3217      3229
      3219      3218      3233      3234      3219      3218      3233      3235
      3219      3218      3233      3239      3220      3218      3217      3221
      3220      3218      3217      3225      3220      3218      3217      3229
      3220      3218      3233      3234      3220      3218      3233      3235
      3220      3218      3233      3239      3221      3217      3218      3233
      3221      3217      3225      3226      3221      3217      3225      3227
      3221      3217      3225      3228      3221      3217      3229      3230
      3221      3217      3229      3231      3221      3217      3229      3232
      3222      3221      3217      3225      3222      3221      3217      3229
      3223      3221      3217      3225      3223      3221      3217      3229
      3224      3221      3217      3225      3224      3221      3217      3229
      3225      3217      3218      3233      3225      3217      3229      3230
      3225      3217      3229      3231      3225      3217      3229      3232
      3226      3225      3217      3229      3227      3225      3217      3229
      3228      3225      3217      3229      3229      3217      3218      3233
      3233      3239      3236      3237      3233      3239      3236      3238
      3233      3239      3236      3240      3234      3233      3239      3236
      3235      3233      3239      3236      3236      3240      3241      3242
      3236      3240      3241      3243      3236      3240      3241      3244
      3237      3236      3240      3241      3238      3236      3240      3241
      3239      3236      3240      3241      3240      3241      3244      3245
      3240      3241      3244      3246      3240      3241      3244      3252
      3241      3244      3246      3247      3241      3244      3252      3253
      3241      3244      3252      3254      3241      3244      3252      3255
      3242      3241      3244      3245      3242      3241      3244      3246
      3242      3241      3244      3252      3243      3241      3244      3245
      3243      3241      3244      3246      3243      3241      3244      3252
      3244      3246      3247      3248      3244      3246      3247      3249
      3244      3252      3255      3256      3245      3244      3246      3247
      3245      3244      3252      3253      3245      3244      3252      3254
      3245      3244      3252      3255      3246      3244      3252      3253
      3246      3244      3252      3254      3246      3244      3252      3255
      3246      3247      3249      3250      3246      3247      3249      3251
      3246      3247      3249      3261      3247      3246      3244      3252
      3247      3249      3261      3262      3247      3249      3261      3263
      3247      3249      3261      3264      3248      3247      3249      3250
      3248      3247      3249      3251      3248      3247      3249      3261
      3249      3261      3264      3265      3249      3261      3264      3266
      3249      3261      3264      3267      3250      3249      3261      3262
      3250      3249      3261      3263      3250      3249      3261      3264
      3251      3249      3261      3262      3251      3249      3261      3263
      3251      3249      3261      3264      3252      3255      3256      3257
      3252      3255      3256      3258      3253      3252      3255      3256
      3254      3252      3255      3256      3255      3256      3258      3259
      3255      3256      3258      3260      3255      3256      3258      3308
      3256      3258      3308      3309      3256      3258      3308      3310
      3256      3258      3308      3311      3257      3256      3258      3259
      3257      3256      3258      3260      3257      3256      3258      3308
      3258      3308      3311      3312      3258      3308      3311      3313
      3258      3308      3311      3314      3259      3258      3308      3309
      3259      3258      3308      3310      3259      3258      3308      3311
      3260      3258      3308      3309      3260      3258      3308      3310
      3260      3258      3308      3311      3261      3264      3267      3268
      3261      3264      3267      3269      3261      3264      3267      3270
      3262      3261      3264      3265      3262      3261      3264      3266
      3262      3261      3264      3267      3263      3261      3264      3265
      3263      3261      3264      3266      3263      3261      3264      3267
      3264      3267      3270      3271      3264      3267      3270      3272
      3264      3267      3270      3273      3265      3264      3267      3268
      3265      3264      3267      3269      3265      3264      3267      3270
      3266      3264      3267      3268      3266      3264      3267      3269
      3266      3264      3267      3270      3267      3270      3273      3274
      3267      3270      3273      3275      3267      3270      3273      3276
      3268      3267      3270      3271      3268      3267      3270      3272
      3268      3267      3270      3273      3269      3267      3270      3271
      3269      3267      3270      3272      3269      3267      3270      3273
      3270      3273      3276      3277      3270      3273      3276      3278
      3270      3273      3276      3279      3271      3270      3273      3274
      3271      3270      3273      3275      3271      3270      3273      3276
      3272      3270      3273      3274      3272      3270      3273      3275
      3272      3270      3273      3276      3273      3276      3279      3280
      3273      3276      3279      3281      3274      3273      3276      3277
      3274      3273      3276      3278      3274      3273      3276      3279
      3275      3273      3276      3277      3275      3273      3276      3278
      3275      3273      3276      3279      3276      3279      3281      3282
      3276      3279      3281      3283      3277      3276      3279      3280
      3277      3276      3279      3281      3278      3276      3279      3280
      3278      3276      3279      3281      3279      3281      3283      3284
      3279      3281      3283      3285      3279      3281      3283      3286
      3280      3279      3281      3282      3280      3279      3281      3283
      3281      3283      3286      3287      3281      3283      3286      3288
      3281      3283      3286      3289      3282      3281      3283      3284
      3282      3281      3283      3285      3282      3281      3283      3286
      3283      3286      3289      3290      3283      3286      3289      3291
      3283      3286      3289      3292      3284      3283      3286      3287
      3284      3283      3286      3288      3284      3283      3286      3289
      3285      3283      3286      3287      3285      3283      3286      3288
      3285      3283      3286      3289      3286      3289      3292      3293
      3286      3289      3292      3294      3286      3289      3292      3295
      3287      3286      3289      3290      3287      3286      3289      3291
      3287      3286      3289      3292      3288      3286      3289      3290
      3288      3286      3289      3291      3288      3286      3289      3292
      3289      3292      3295      3296      3289      3292      3295      3297
      3289      3292      3295      3298      3290      3289      3292      3293
      3290      3289      3292      3294      3290      3289      3292      3295
      3291      3289      3292      3293      3291      3289      3292      3294
      3291      3289      3292      3295      3292      3295      3298      3299
      3292      3295      3298      3300      3292      3295      3298      3301
      3293      3292      3295      3296      3293      3292      3295      3297
      3293      3292      3295      3298      3294      3292      3295      3296
      3294      3292      3295      3297      3294      3292      3295      3298
      3295      3298      3301      3302      3295      3298      3301      3303
      3295      3298      3301      3304      3296      3295      3298      3299
      3296      3295      3298      3300      3296      3295      3298      3301
      3297      3295      3298      3299      3297      3295      3298      3300
      3297      3295      3298      3301      3298      3301      3304      3305
      3298      3301      3304      3306      3298      3301      3304      3307
      3299      3298      3301      3302      3299      3298      3301      3303
      3299      3298      3301      3304      3300      3298      3301      3302
      3300      3298      3301      3303      3300      3298      3301      3304
      3302      3301      3304      3305      3302      3301      3304      3306
      3302      3301      3304      3307      3303      3301      3304      3305
      3303      3301      3304      3306      3303      3301      3304      3307
      3308      3311      3314      3315      3308      3311      3314      3316
      3308      3311      3314      3317      3309      3308      3311      3312
      3309      3308      3311      3313      3309      3308      3311      3314
      3310      3308      3311      3312      3310      3308      3311      3313
      3310      3308      3311      3314      3311      3314      3317      3318
      3311      3314      3317      3319      3311      3314      3317      3320
      3312      3311      3314      3315      3312      3311      3314      3316
      3312      3311      3314      3317      3313      3311      3314      3315
      3313      3311      3314      3316      3313      3311      3314      3317
      3314      3317      3320      3321      3314      3317      3320      3322
      3314      3317      3320      3323      3315      3314      3317      3318
      3315      3314      3317      3319      3315      3314      3317      3320
      3316      3314      3317      3318      3316      3314      3317      3319
      3316      3314      3317      3320      3317      3320      3323      3324
      3317      3320      3323      3325      3317      3320      3323      3326
      3318      3317      3320      3321      3318      3317      3320      3322
      3318      3317      3320      3323      3319      3317      3320      3321
      3319      3317      3320      3322      3319      3317      3320      3323
      3320      3323      3326      3327      3320      3323      3326      3328
      3320      3323      3326      3329      3321      3320      3323      3324
      3321      3320      3323      3325      3321      3320      3323      3326
      3322      3320      3323      3324      3322      3320      3323      3325
      3322      3320      3323      3326      3323      3326      3329      3330
      3323      3326      3329      3331      3323      3326      3329      3332
      3324      3323      3326      3327      3324      3323      3326      3328
      3324      3323      3326      3329      3325      3323      3326      3327
      3325      3323      3326      3328      3325      3323      3326      3329
      3326      3329      3332      3333      3326      3329      3332      3334
      3326      3329      3332      3335      3327      3326      3329      3330
      3327      3326      3329      3331      3327      3326      3329      3332
      3328      3326      3329      3330      3328      3326      3329      3331
      3328      3326      3329      3332      3329      3332      3335      3336
      3329      3332      3335      3337      3329      3332      3335      3338
      3330      3329      3332      3333      3330      3329      3332      3334
      3330      3329      3332      3335      3331      3329      3332      3333
      3331      3329      3332      3334      3331      3329      3332      3335
      3332      3335      3338      3339      3332      3335      3338      3340
      3332      3335      3338      3341      3333      3332      3335      3336
      3333      3332      3335      3337      3333      3332      3335      3338
      3334      3332      3335      3336      3334      3332      3335      3337
      3334      3332      3335      3338      3335      3338      3341      3342
      3335      3338      3341      3343      3335      3338      3341      3344
      3336      3335      3338      3339      3336      3335      3338      3340
      3336      3335      3338      3341      3337      3335      3338      3339
      3337      3335      3338      3340      3337      3335      3338      3341
      3338      3341      3344      3345      3338      3341      3344      3346
      3338      3341      3344      3347      3339      3338      3341      3342
      3339      3338      3341      3343      3339      3338      3341      3344
      3340      3338      3341      3342      3340      3338      3341      3343
      3340      3338      3341      3344      3341      3344      3347      3348
      3341      3344      3347      3349      3341      3344      3347      3350
      3342      3341      3344      3345      3342      3341      3344      3346
      3342      3341      3344      3347      3343      3341      3344      3345
      3343      3341      3344      3346      3343      3341      3344      3347
      3345      3344      3347      3348      3345      3344      3347      3349
      3345      3344      3347      3350      3346      3344      3347      3348
      3346      3344      3347      3349      3346      3344      3347      3350
      3351      3352      3367      3368      3351      3352      3367      3369
      3351      3352      3367      3373      3352      3351      3355      3356
      3352      3351      3355      3357      3352      3351      3355      3358
      3352      3351      3359      3360      3352      3351      3359      3361
      3352      3351      3359      3362      3352      3351      3363      3364
      3352      3351      3363      3365      3352      3351      3363      3366
      3352      3367      3373      3370      3353      3352      3351      3355
      3353      3352      3351      3359      3353      3352      3351      3363
      3353      3352      3367      3368      3353      3352      3367      3369
      3353      3352      3367      3373      3354      3352      3351      3355
      3354      3352      3351      3359      3354      3352      3351      3363
      3354      3352      3367      3368      3354      3352      3367      3369
      3354      3352      3367      3373      3355      3351      3352      3367
      3355      3351      3359      3360      3355      3351      3359      3361
      3355      3351      3359      3362      3355      3351      3363      3364
      3355      3351      3363      3365      3355      3351      3363      3366
      3356      3355      3351      3359      3356      3355      3351      3363
      3357      3355      3351      3359      3357      3355      3351      3363
      3358      3355      3351      3359      3358      3355      3351      3363
      3359      3351      3352      3367      3359      3351      3363      3364
      3359      3351      3363      3365      3359      3351      3363      3366
      3360      3359      3351      3363      3361      3359      3351      3363
      3362      3359      3351      3363      3363      3351      3352      3367
      3367      3373      3370      3371      3367      3373      3370      3372
      3367      3373      3370      3374      3368      3367      3373      3370
      3369      3367      3373      3370      3370      3374      3375      3376
      3370      3374      3375      3377      3370      3374      3375      3378
      3371      3370      3374      3375      3372      3370      3374      3375
      3373      3370      3374      3375      3374      3375      3378      3379
      3374      3375      3378      3380      3374      3375      3378      3386
      3375      3378      3380      3381      3375      3378      3386      3387
      3375      3378      3386      3388      3375      3378      3386      3389
      3376      3375      3378      3379      3376      3375      3378      3380
      3376      3375      3378      3386      3377      3375      3378      3379
      3377      3375      3378      3380      3377      3375      3378      3386
      3378      3380      3381      3382      3378      3380      3381      3383
      3378      3386      3389      3390      3379      3378      3380      3381
      3379      3378      3386      3387      3379      3378      3386      3388
      3379      3378      3386      3389      3380      3378      3386      3387
      3380      3378      3386      3388      3380      3378      3386      3389
      3380      3381      3383      3384      3380      3381      3383      3385
      3380      3381      3383      3395      3381      3380      3378      3386
      3381      3383      3395      3396      3381      3383      3395      3397
      3381      3383      3395      3398      3382      3381      3383      3384
      3382      3381      3383      3385      3382      3381      3383      3395
      3383      3395      3398      3399      3383      3395      3398      3400
      3383      3395      3398      3401      3384      3383      3395      3396
      3384      3383      3395      3397      3384      3383      3395      3398
      3385      3383      3395      3396      3385      3383      3395      3397
      3385      3383      3395      3398      3386      3389      3390      3391
      3386      3389      3390      3392      3387      3386      3389      3390
      3388      3386      3389      3390      3389      3390      3392      3393
      3389      3390      3392      3394      3389      3390      3392      3442
      3390      3392      3442      3443      3390      3392      3442      3444
      3390      3392      3442      3445      3391      3390      3392      3393
      3391      3390      3392      3394      3391      3390      3392      3442
      3392      3442      3445      3446      3392      3442      3445      3447
      3392      3442      3445      3448      3393      3392      3442      3443
      3393      3392      3442      3444      3393      3392      3442      3445
      3394      3392      3442      3443      3394      3392      3442      3444
      3394      3392      3442      3445      3395      3398      3401      3402
      3395      3398      3401      3403      3395      3398      3401      3404
      3396      3395      3398      3399      3396      3395      3398      3400
      3396      3395      3398      3401      3397      3395      3398      3399
      3397      3395      3398      3400      3397      3395      3398      3401
      3398      3401      3404      3405      3398      3401      3404      3406
      3398      3401      3404      3407      3399      3398      3401      3402
      3399      3398      3401      3403      3399      3398      3401      3404
      3400      3398      3401      3402      3400      3398      3401      3403
      3400      3398      3401      3404      3401      3404      3407      3408
      3401      3404      3407      3409      3401      3404      3407      3410
      3402      3401      3404      3405      3402      3401      3404      3406
      3402      3401      3404      3407      3403      3401      3404      3405
      3403      3401      3404      3406      3403      3401      3404      3407
      3404      3407      3410      3411      3404      3407      3410      3412
      3404      3407      3410      3413      3405      3404      3407      3408
      3405      3404      3407      3409      3405      3404      3407      3410
      3406      3404      3407      3408      3406      3404      3407      3409
      3406      3404      3407      3410      3407      3410      3413      3414
      3407      3410      3413      3415      3408      3407      3410      3411
      3408      3407      3410      3412      3408      3407      3410      3413
      3409      3407      3410      3411      3409      3407      3410      3412
      3409      3407      3410      3413      3410      3413      3415      3416
      3410      3413      3415      3417      3411      3410      3413      3414
      3411      3410      3413      3415      3412      3410      3413      3414
      3412      3410      3413      3415      3413      3415      3417      3418
      3413      3415      3417      3419      3413      3415      3417      3420
      3414      3413      3415      3416      3414      3413      3415      3417
      3415      3417      3420      3421      3415      3417      3420      3422
      3415      3417      3420      3423      3416      3415      3417      3418
      3416      3415      3417      3419      3416      3415      3417      3420
      3417      3420      3423      3424      3417      3420      3423      3425
      3417      3420      3423      3426      3418      3417      3420      3421
      3418      3417      3420      3422      3418      3417      3420      3423
      3419      3417      3420      3421      3419      3417      3420      3422
      3419      3417      3420      3423      3420      3423      3426      3427
      3420      3423      3426      3428      3420      3423      3426      3429
      3421      3420      3423      3424      3421      3420      3423      3425
      3421      3420      3423      3426      3422      3420      3423      3424
      3422      3420      3423      3425      3422      3420      3423      3426
      3423      3426      3429      3430      3423      3426      3429      3431
      3423      3426      3429      3432      3424      3423      3426      3427
      3424      3423      3426      3428      3424      3423      3426      3429
      3425      3423      3426      3427      3425      3423      3426      3428
      3425      3423      3426      3429      3426      3429      3432      3433
      3426      3429      3432      3434      3426      3429      3432      3435
      3427      3426      3429      3430      3427      3426      3429      3431
      3427      3426      3429      3432      3428      3426      3429      3430
      3428      3426      3429      3431      3428      3426      3429      3432
      3429      3432      3435      3436      3429      3432      3435      3437
      3429      3432      3435      3438      3430      3429      3432      3433
      3430      3429      3432      3434      3430      3429      3432      3435
      3431      3429      3432      3433      3431      3429      3432      3434
      3431      3429      3432      3435      3432      3435      3438      3439
      3432      3435      3438      3440      3432      3435      3438      3441
      3433      3432      3435      3436      3433      3432      3435      3437
      3433      3432      3435      3438      3434      3432      3435      3436
      3434      3432      3435      3437      3434      3432      3435      3438
      3436      3435      3438      3439      3436      3435      3438      3440
      3436      3435      3438      3441      3437      3435      3438      3439
      3437      3435      3438      3440      3437      3435      3438      3441
      3442      3445      3448      3449      3442      3445      3448      3450
      3442      3445      3448      3451      3443      3442      3445      3446
      3443      3442      3445      3447      3443      3442      3445      3448
      3444      3442      3445      3446      3444      3442      3445      3447
      3444      3442      3445      3448      3445      3448      3451      3452
      3445      3448      3451      3453      3445      3448      3451      3454
      3446      3445      3448      3449      3446      3445      3448      3450
      3446      3445      3448      3451      3447      3445      3448      3449
      3447      3445      3448      3450      3447      3445      3448      3451
      3448      3451      3454      3455      3448      3451      3454      3456
      3448      3451      3454      3457      3449      3448      3451      3452
      3449      3448      3451      3453      3449      3448      3451      3454
      3450      3448      3451      3452      3450      3448      3451      3453
      3450      3448      3451      3454      3451      3454      3457      3458
      3451      3454      3457      3459      3451      3454      3457      3460
      3452      3451      3454      3455      3452      3451      3454      3456
      3452      3451      3454      3457      3453      3451      3454      3455
      3453      3451      3454      3456      3453      3451      3454      3457
      3454      3457      3460      3461      3454      3457      3460      3462
      3454      3457      3460      3463      3455      3454      3457      3458
      3455      3454      3457      3459      3455      3454      3457      3460
      3456      3454      3457      3458      3456      3454      3457      3459
      3456      3454      3457      3460      3457      3460      3463      3464
      3457      3460      3463      3465      3457      3460      3463      3466
      3458      3457      3460      3461      3458      3457      3460      3462
      3458      3457      3460      3463      3459      3457      3460      3461
      3459      3457      3460      3462      3459      3457      3460      3463
      3460      3463      3466      3467      3460      3463      3466      3468
      3460      3463      3466      3469      3461      3460      3463      3464
      3461      3460      3463      3465      3461      3460      3463      3466
      3462      3460      3463      3464      3462      3460      3463      3465
      3462      3460      3463      3466      3463      3466      3469      3470
      3463      3466      3469      3471      3463      3466      3469      3472
      3464      3463      3466      3467      3464      3463      3466      3468
      3464      3463      3466      3469      3465      3463      3466      3467
      3465      3463      3466      3468      3465      3463      3466      3469
      3466      3469      3472      3473      3466      3469      3472      3474
      3466      3469      3472      3475      3467      3466      3469      3470
      3467      3466      3469      3471      3467      3466      3469      3472
      3468      3466      3469      3470      3468      3466      3469      3471
      3468      3466      3469      3472      3469      3472      3475      3476
      3469      3472      3475      3477      3469      3472      3475      3478
      3470      3469      3472      3473      3470      3469      3472      3474
      3470      3469      3472      3475      3471      3469      3472      3473
      3471      3469      3472      3474      3471      3469      3472      3475
      3472      3475      3478      3479      3472      3475      3478      3480
      3472      3475      3478      3481      3473      3472      3475      3476
      3473      3472      3475      3477      3473      3472      3475      3478
      3474      3472      3475      3476      3474      3472      3475      3477
      3474      3472      3475      3478      3475      3478      3481      3482
      3475      3478      3481      3483      3475      3478      3481      3484
      3476      3475      3478      3479      3476      3475      3478      3480
      3476      3475      3478      3481      3477      3475      3478      3479
      3477      3475      3478      3480      3477      3475      3478      3481
      3479      3478      3481      3482      3479      3478      3481      3483
      3479      3478      3481      3484      3480      3478      3481      3482
      3480      3478      3481      3483      3480      3478      3481      3484
      3485      3486      3501      3502      3485      3486      3501      3503
      3485      3486      3501      3507      3486      3485      3489      3490
      3486      3485      3489      3491      3486      3485      3489      3492
      3486      3485      3493      3494      3486      3485      3493      3495
      3486      3485      3493      3496      3486      3485      3497      3498
      3486      3485      3497      3499      3486      3485      3497      3500
      3486      3501      3507      3504      3487      3486      3485      3489
      3487      3486      3485      3493      3487      3486      3485      3497
      3487      3486      3501      3502      3487      3486      3501      3503
      3487      3486      3501      3507      3488      3486      3485      3489
      3488      3486      3485      3493      3488      3486      3485      3497
      3488      3486      3501      3502      3488      3486      3501      3503
      3488      3486      3501      3507      3489      3485      3486      3501
      3489      3485      3493      3494      3489      3485      3493      3495
      3489      3485      3493      3496      3489      3485      3497      3498
      3489      3485      3497      3499      3489      3485      3497      3500
      3490      3489      3485      3493      3490      3489      3485      3497
      3491      3489      3485      3493      3491      3489      3485      3497
      3492      3489      3485      3493      3492      3489      3485      3497
      3493      3485      3486      3501      3493      3485      3497      3498
      3493      3485      3497      3499      3493      3485      3497      3500
      3494      3493      3485      3497      3495      3493      3485      3497
      3496      3493      3485      3497      3497      3485      3486      3501
      3501      3507      3504      3505      3501      3507      3504      3506
      3501      3507      3504      3508      3502      3501      3507      3504
      3503      3501      3507      3504      3504      3508      3509      3510
      3504      3508      3509      3511      3504      3508      3509      3512
      3505      3504      3508      3509      3506      3504      3508      3509
      3507      3504      3508      3509      3508      3509      3512      3513
      3508      3509      3512      3514      3508      3509      3512      3520
      3509      3512      3514      3515      3509      3512      3520      3521
      3509      3512      3520      3522      3509      3512      3520      3523
      3510      3509      3512      3513      3510      3509      3512      3514
      3510      3509      3512      3520      3511      3509      3512      3513
      3511      3509      3512      3514      3511      3509      3512      3520
      3512      3514      3515      3516      3512      3514      3515      3517
      3512      3520      3523      3524      3513      3512      3514      3515
      3513      3512      3520      3521      3513      3512      3520      3522
      3513      3512      3520      3523      3514      3512      3520      3521
      3514      3512      3520      3522      3514      3512      3520      3523
      3514      3515      3517      3518      3514      3515      3517      3519
      3514      3515      3517      3529      3515      3514      3512      3520
      3515      3517      3529      3530      3515      3517      3529      3531
      3515      3517      3529      3532      3516      3515      3517      3518
      3516      3515      3517      3519      3516      3515      3517      3529
      3517      3529      3532      3533      3517      3529      3532      3534
      3517      3529      3532      3535      3518      3517      3529      3530
      3518      3517      3529      3531      3518      3517      3529      3532
      3519      3517      3529      3530      3519      3517      3529      3531
      3519      3517      3529      3532      3520      3523      3524      3525
      3520      3523      3524      3526      3521      3520      3523      3524
      3522      3520      3523      3524      3523      3524      3526      3527
      3523      3524      3526      3528      3523      3524      3526      3576
      3524      3526      3576      3577      3524      3526      3576      3578
      3524      3526      3576      3579      3525      3524      3526      3527
      3525      3524      3526      3528      3525      3524      3526      3576
      3526      3576      3579      3580      3526      3576      3579      3581
      3526      3576      3579      3582      3527      3526      3576      3577
      3527      3526      3576      3578      3527      3526      3576      3579
      3528      3526      3576      3577      3528      3526      3576      3578
      3528      3526      3576      3579      3529      3532      3535      3536
      3529      3532      3535      3537      3529      3532      3535      3538
      3530      3529      3532      3533      3530      3529      3532      3534
      3530      3529      3532      3535      3531      3529      3532      3533
      3531      3529      3532      3534      3531      3529      3532      3535
      3532      3535      3538      3539      3532      3535      3538      3540
      3532      3535      3538      3541      3533      3532      3535      3536
      3533      3532      3535      3537      3533      3532      3535      3538
      3534      3532      3535      3536      3534      3532      3535      3537
      3534      3532      3535      3538      3535      3538      3541      3542
      3535      3538      3541      3543      3535      3538      3541      3544
      3536      3535      3538      3539      3536      3535      3538      3540
      3536      3535      3538      3541      3537      3535      3538      3539
      3537      3535      3538      3540      3537      3535      3538      3541
      3538      3541      3544      3545      3538      3541      3544      3546
      3538      3541      3544      3547      3539      3538      3541      3542
      3539      3538      3541      3543      3539      3538      3541      3544
      3540      3538      3541      3542      3540      3538      3541      3543
      3540      3538      3541      3544      3541      3544      3547      3548
      3541      3544      3547      3549      3542      3541      3544      3545
      3542      3541      3544      3546      3542      3541      3544      3547
      3543      3541      3544      3545      3543      3541      3544      3546
      3543      3541      3544      3547      3544      3547      3549      3550
      3544      3547      3549      3551      3545      3544      3547      3548
      3545      3544      3547      3549      3546      3544      3547      3548
      3546      3544      3547      3549      3547      3549      3551      3552
      3547      3549      3551      3553      3547      3549      3551      3554
      3548      3547      3549      3550      3548      3547      3549      3551
      3549      3551      3554      3555      3549      3551      3554      3556
      3549      3551      3554      3557      3550      3549      3551      3552
      3550      3549      3551      3553      3550      3549      3551      3554
      3551      3554      3557      3558      3551      3554      3557      3559
      3551      3554      3557      3560      3552      3551      3554      3555
      3552      3551      3554      3556      3552      3551      3554      3557
      3553      3551      3554      3555      3553      3551      3554      3556
      3553      3551      3554      3557      3554      3557      3560      3561
      3554      3557      3560      3562      3554      3557      3560      3563
      3555      3554      3557      3558      3555      3554      3557      3559
      3555      3554      3557      3560      3556      3554      3557      3558
      3556      3554      3557      3559      3556      3554      3557      3560
      3557      3560      3563      3564      3557      3560      3563      3565
      3557      3560      3563      3566      3558      3557      3560      3561
      3558      3557      3560      3562      3558      3557      3560      3563
      3559      3557      3560      3561      3559      3557      3560      3562
      3559      3557      3560      3563      3560      3563      3566      3567
      3560      3563      3566      3568      3560      3563      3566      3569
      3561      3560      3563      3564      3561      3560      3563      3565
      3561      3560      3563      3566      3562      3560      3563      3564
      3562      3560      3563      3565      3562      3560      3563      3566
      3563      3566      3569      3570      3563      3566      3569      3571
      3563      3566      3569      3572      3564      3563      3566      3567
      3564      3563      3566      3568      3564      3563      3566      3569
      3565      3563      3566      3567      3565      3563      3566      3568
      3565      3563      3566      3569      3566      3569      3572      3573
      3566      3569      3572      3574      3566      3569      3572      3575
      3567      3566      3569      3570      3567      3566      3569      3571
      3567      3566      3569      3572      3568      3566      3569      3570
      3568      3566      3569      3571      3568      3566      3569      3572
      3570      3569      3572      3573      3570      3569      3572      3574
      3570      3569      3572      3575      3571      3569      3572      3573
      3571      3569      3572      3574      3571      3569      3572      3575
      3576      3579      3582      3583      3576      3579      3582      3584
      3576      3579      3582      3585      3577      3576      3579      3580
      3577      3576      3579      3581      3577      3576      3579      3582
      3578      3576      3579      3580      3578      3576      3579      3581
      3578      3576      3579      3582      3579      3582      3585      3586
      3579      3582      3585      3587      3579      3582      3585      3588
      3580      3579      3582      3583      3580      3579      3582      3584
      3580      3579      3582      3585      3581      3579      3582      3583
      3581      3579      3582      3584      3581      3579      3582      3585
      3582      3585      3588      3589      3582      3585      3588      3590
      3582      3585      3588      3591      3583      3582      3585      3586
      3583      3582      3585      3587      3583      3582      3585      3588
      3584      3582      3585      3586      3584      3582      3585      3587
      3584      3582      3585      3588      3585      3588      3591      3592
      3585      3588      3591      3593      3585      3588      3591      3594
      3586      3585      3588      3589      3586      3585      3588      3590
      3586      3585      3588      3591      3587      3585      3588      3589
      3587      3585      3588      3590      3587      3585      3588      3591
      3588      3591      3594      3595      3588      3591      3594      3596
      3588      3591      3594      3597      3589      3588      3591      3592
      3589      3588      3591      3593      3589      3588      3591      3594
      3590      3588      3591      3592      3590      3588      3591      3593
      3590      3588      3591      3594      3591      3594      3597      3598
      3591      3594      3597      3599      3591      3594      3597      3600
      3592      3591      3594      3595      3592      3591      3594      3596
      3592      3591      3594      3597      3593      3591      3594      3595
      3593      3591      3594      3596      3593      3591      3594      3597
      3594      3597      3600      3601      3594      3597      3600      3602
      3594      3597      3600      3603      3595      3594      3597      3598
      3595      3594      3597      3599      3595      3594      3597      3600
      3596      3594      3597      3598      3596      3594      3597      3599
      3596      3594      3597      3600      3597      3600      3603      3604
      3597      3600      3603      3605      3597      3600      3603      3606
      3598      3597      3600      3601      3598      3597      3600      3602
      3598      3597      3600      3603      3599      3597      3600      3601
      3599      3597      3600      3602      3599      3597      3600      3603
      3600      3603      3606      3607      3600      3603      3606      3608
      3600      3603      3606      3609      3601      3600      3603      3604
      3601      3600      3603      3605      3601      3600      3603      3606
      3602      3600      3603      3604      3602      3600      3603      3605
      3602      3600      3603      3606      3603      3606      3609      3610
      3603      3606      3609      3611      3603      3606      3609      3612
      3604      3603      3606      3607      3604      3603      3606      3608
      3604      3603      3606      3609      3605      3603      3606      3607
      3605      3603      3606      3608      3605      3603      3606      3609
      3606      3609      3612      3613      3606      3609      3612      3614
      3606      3609      3612      3615      3607      3606      3609      3610
      3607      3606      3609      3611      3607      3606      3609      3612
      3608      3606      3609      3610      3608      3606      3609      3611
      3608      3606      3609      3612      3609      3612      3615      3616
      3609      3612      3615      3617      3609      3612      3615      3618
      3610      3609      3612      3613      3610      3609      3612      3614
      3610      3609      3612      3615      3611      3609      3612      3613
      3611      3609      3612      3614      3611      3609      3612      3615
      3613      3612      3615      3616      3613      3612      3615      3617
      3613      3612      3615      3618      3614      3612      3615      3616
      3614      3612      3615      3617      3614      3612      3615      3618
      3619      3620      3635      3636      3619      3620      3635      3637
      3619      3620      3635      3641      3620      3619      3623      3624
      3620      3619      3623      3625      3620      3619      3623      3626
      3620      3619      3627      3628      3620      3619      3627      3629
      3620      3619      3627      3630      3620      3619      3631      3632
      3620      3619      3631      3633      3620      3619      3631      3634
      3620      3635      3641      3638      3621      3620      3619      3623
      3621      3620      3619      3627      3621      3620      3619      3631
      3621      3620      3635      3636      3621      3620      3635      3637
      3621      3620      3635      3641      3622      3620      3619      3623
      3622      3620      3619      3627      3622      3620      3619      3631
      3622      3620      3635      3636      3622      3620      3635      3637
      3622      3620      3635      3641      3623      3619      3620      3635
      3623      3619      3627      3628      3623      3619      3627      3629
      3623      3619      3627      3630      3623      3619      3631      3632
      3623      3619      3631      3633      3623      3619      3631      3634
      3624      3623      3619      3627      3624      3623      3619      3631
      3625      3623      3619      3627      3625      3623      3619      3631
      3626      3623      3619      3627      3626      3623      3619      3631
      3627      3619      3620      3635      3627      3619      3631      3632
      3627      3619      3631      3633      3627      3619      3631      3634
      3628      3627      3619      3631      3629      3627      3619      3631
      3630      3627      3619      3631      3631      3619      3620      3635
      3635      3641      3638      3639      3635      3641      3638      3640
      3635      3641      3638      3642      3636      3635      3641      3638
      3637      3635      3641      3638      3638      3642      3643      3644
      3638      3642      3643      3645      3638      3642      3643      3646
      3639      3638      3642      3643      3640      3638      3642      3643
      3641      3638      3642      3643      3642      3643      3646      3647
      3642      3643      3646      3648      3642      3643      3646      3654
      3643      3646      3648      3649      3643      3646      3654      3655
      3643      3646      3654      3656      3643      3646      3654      3657
      3644      3643      3646      3647      3644      3643      3646      3648
      3644      3643      3646      3654      3645      3643      3646      3647
      3645      3643      3646      3648      3645      3643      3646      3654
      3646      3648      3649      3650      3646      3648      3649      3651
      3646      3654      3657      3658      3647      3646      3648      3649
      3647      3646      3654      3655      3647      3646      3654      3656
      3647      3646      3654      3657      3648      3646      3654      3655
      3648      3646      3654      3656      3648      3646      3654      3657
      3648      3649      3651      3652      3648      3649      3651      3653
      3648      3649      3651      3663      3649      3648      3646      3654
      3649      3651      3663      3664      3649      3651      3663      3665
      3649      3651      3663      3666      3650      3649      3651      3652
      3650      3649      3651      3653      3650      3649      3651      3663
      3651      3663      3666      3667      3651      3663      3666      3668
      3651      3663      3666      3669      3652      3651      3663      3664
      3652      3651      3663      3665      3652      3651      3663      3666
      3653      3651      3663      3664      3653      3651      3663      3665
      3653      3651      3663      3666      3654      3657      3658      3659
      3654      3657      3658      3660      3655      3654      3657      3658
      3656      3654      3657      3658      3657      3658      3660      3661
      3657      3658      3660      3662      3657      3658      3660      3710
      3658      3660      3710      3711      3658      3660      3710      3712
      3658      3660      3710      3713      3659      3658      3660      3661
      3659      3658      3660      3662      3659      3658      3660      3710
      3660      3710      3713      3714      3660      3710      3713      3715
      3660      3710      3713      3716      3661      3660      3710      3711
      3661      3660      3710      3712      3661      3660      3710      3713
      3662      3660      3710      3711      3662      3660      3710      3712
      3662      3660      3710      3713      3663      3666      3669      3670
      3663      3666      3669      3671      3663      3666      3669      3672
      3664      3663      3666      3667      3664      3663      3666      3668
      3664      3663      3666      3669      3665      3663      3666      3667
      3665      3663      3666      3668      3665      3663      3666      3669
      3666      3669      3672      3673      3666      3669      3672      3674
      3666      3669      3672      3675      3667      3666      3669      3670
      3667      3666      3669      3671      3667      3666      3669      3672
      3668      3666      3669      3670      3668      3666      3669      3671
      3668      3666      3669      3672      3669      3672      3675      3676
      3669      3672      3675      3677      3669      3672      3675      3678
      3670      3669      3672      3673      3670      3669      3672      3674
      3670      3669      3672      3675      3671      3669      3672      3673
      3671      3669      3672      3674      3671      3669      3672      3675
      3672      3675      3678      3679      3672      3675      3678      3680
      3672      3675      3678      3681      3673      3672      3675      3676
      3673      3672      3675      3677      3673      3672      3675      3678
      3674      3672      3675      3676      3674      3672      3675      3677
      3674      3672      3675      3678      3675      3678      3681      3682
      3675      3678      3681      3683      3676      3675      3678      3679
      3676      3675      3678      3680      3676      3675      3678      3681
      3677      3675      3678      3679      3677      3675      3678      3680
      3677      3675      3678      3681      3678      3681      3683      3684
      3678      3681      3683      3685      3679      3678      3681      3682
      3679      3678      3681      3683      3680      3678      3681      3682
      3680      3678      3681      3683      3681      3683      3685      3686
      3681      3683      3685      3687      3681      3683      3685      3688
      3682      3681      3683      3684      3682      3681      3683      3685
      3683      3685      3688      3689      3683      3685      3688      3690
      3683      3685      3688      3691      3684      3683      3685      3686
      3684      3683      3685      3687      3684      3683      3685      3688
      3685      3688      3691      3692      3685      3688      3691      3693
      3685      3688      3691      3694      3686      3685      3688      3689
      3686      3685      3688      3690      3686      3685      3688      3691
      3687      3685      3688      3689      3687      3685      3688      3690
      3687      3685      3688      3691      3688      3691      3694      3695
      3688      3691      3694      3696      3688      3691      3694      3697
      3689      3688      3691      3692      3689      3688      3691      3693
      3689      3688      3691      3694      3690      3688      3691      3692
      3690      3688      3691      3693      3690      3688      3691      3694
      3691      3694      3697      3698      3691      3694      3697      3699
      3691      3694      3697      3700      3692      3691      3694      3695
      3692      3691      3694      3696      3692      3691      3694      3697
      3693      3691      3694      3695      3693      3691      3694      3696
      3693      3691      3694      3697      3694      3697      3700      3701
      3694      3697      3700      3702      3694      3697      3700      3703
      3695      3694      3697      3698      3695      3694      3697      3699
      3695      3694      3697      3700      3696      3694      3697      3698
      3696      3694      3697      3699      3696      3694      3697      3700
      3697      3700      3703      3704      3697      3700      3703      3705
      3697      3700      3703      3706      3698      3697      3700      3701
      3698      3697      3700      3702      3698      3697      3700      3703
      3699      3697      3700      3701      3699      3697      3700      3702
      3699      3697      3700      3703      3700      3703      3706      3707
      3700      3703      3706      3708      3700      3703      3706      3709
      3701      3700      3703      3704      3701      3700      3703      3705
      3701      3700      3703      3706      3702      3700      3703      3704
      3702      3700      3703      3705      3702      3700      3703      3706
      3704      3703      3706      3707      3704      3703      3706      3708
      3704      3703      3706      3709      3705      3703      3706      3707
      3705      3703      3706      3708      3705      3703      3706      3709
      3710      3713      3716      3717      3710      3713      3716      3718
      3710      3713      3716      3719      3711      3710      3713      3714
      3711      3710      3713      3715      3711      3710      3713      3716
      3712      3710      3713      3714      3712      3710      3713      3715
      3712      3710      3713      3716      3713      3716      3719      3720
      3713      3716      3719      3721      3713      3716      3719      3722
      3714      3713      3716      3717      3714      3713      3716      3718
      3714      3713      3716      3719      3715      3713      3716      3717
      3715      3713      3716      3718      3715      3713      3716      3719
      3716      3719      3722      3723      3716      3719      3722      3724
      3716      3719      3722      3725      3717      3716      3719      3720
      3717      3716      3719      3721      3717      3716      3719      3722
      3718      3716      3719      3720      3718      3716      3719      3721
      3718      3716      3719      3722      3719      3722      3725      3726
      3719      3722      3725      3727      3719      3722      3725      3728
      3720      3719      3722      3723      3720      3719      3722      3724
      3720      3719      3722      3725      3721      3719      3722      3723
      3721      3719      3722      3724      3721      3719      3722      3725
      3722      3725      3728      3729      3722      3725      3728      3730
      3722      3725      3728      3731      3723      3722      3725      3726
      3723      3722      3725      3727      3723      3722      3725      3728
      3724      3722      3725      3726      3724      3722      3725      3727
      3724      3722      3725      3728      3725      3728      3731      3732
      3725      3728      3731      3733      3725      3728      3731      3734
      3726      3725      3728      3729      3726      3725      3728      3730
      3726      3725      3728      3731      3727      3725      3728      3729
      3727      3725      3728      3730      3727      3725      3728      3731
      3728      3731      3734      3735      3728      3731      3734      3736
      3728      3731      3734      3737      3729      3728      3731      3732
      3729      3728      3731      3733      3729      3728      3731      3734
      3730      3728      3731      3732      3730      3728      3731      3733
      3730      3728      3731      3734      3731      3734      3737      3738
      3731      3734      3737      3739      3731      3734      3737      3740
      3732      3731      3734      3735      3732      3731      3734      3736
      3732      3731      3734      3737      3733      3731      3734      3735
      3733      3731      3734      3736      3733      3731      3734      3737
      3734      3737      3740      3741      3734      3737      3740      3742
      3734      3737      3740      3743      3735      3734      3737      3738
      3735      3734      3737      3739      3735      3734      3737      3740
      3736      3734      3737      3738      3736      3734      3737      3739
      3736      3734      3737      3740      3737      3740      3743      3744
      3737      3740      3743      3745      3737      3740      3743      3746
      3738      3737      3740      3741      3738      3737      3740      3742
      3738      3737      3740      3743      3739      3737      3740      3741
      3739      3737      3740      3742      3739      3737      3740      3743
      3740      3743      3746      3747      3740      3743      3746      3748
      3740      3743      3746      3749      3741      3740      3743      3744
      3741      3740      3743      3745      3741      3740      3743      3746
      3742      3740      3743      3744      3742      3740      3743      3745
      3742      3740      3743      3746      3743      3746      3749      3750
      3743      3746      3749      3751      3743      3746      3749      3752
      3744      3743      3746      3747      3744      3743      3746      3748
      3744      3743      3746      3749      3745      3743      3746      3747
      3745      3743      3746      3748      3745      3743      3746      3749
      3747      3746      3749      3750      3747      3746      3749      3751
      3747      3746      3749      3752      3748      3746      3749      3750
      3748      3746      3749      3751      3748      3746      3749      3752
      3753      3754      3769      3770      3753      3754      3769      3771
      3753      3754      3769      3775      3754      3753      3757      3758
      3754      3753      3757      3759      3754      3753      3757      3760
      3754      3753      3761      3762      3754      3753      3761      3763
      3754      3753      3761      3764      3754      3753      3765      3766
      3754      3753      3765      3767      3754      3753      3765      3768
      3754      3769      3775      3772      3755      3754      3753      3757
      3755      3754      3753      3761      3755      3754      3753      3765
      3755      3754      3769      3770      3755      3754      3769      3771
      3755      3754      3769      3775      3756      3754      3753      3757
      3756      3754      3753      3761      3756      3754      3753      3765
      3756      3754      3769      3770      3756      3754      3769      3771
      3756      3754      3769      3775      3757      3753      3754      3769
      3757      3753      3761      3762      3757      3753      3761      3763
      3757      3753      3761      3764      3757      3753      3765      3766
      3757      3753      3765      3767      3757      3753      3765      3768
      3758      3757      3753      3761      3758      3757      3753      3765
      3759      3757      3753      3761      3759      3757      3753      3765
      3760      3757      3753      3761      3760      3757      3753      3765
      3761      3753      3754      3769      3761      3753      3765      3766
      3761      3753      3765      3767      3761      3753      3765      3768
      3762      3761      3753      3765      3763      3761      3753      3765
      3764      3761      3753      3765      3765      3753      3754      3769
      3769      3775      3772      3773      3769      3775      3772      3774
      3769      3775      3772      3776      3770      3769      3775      3772
      3771      3769      3775      3772      3772      3776      3777      3778
      3772      3776      3777      3779      3772      3776      3777      3780
      3773      3772      3776      3777      3774      3772      3776      3777
      3775      3772      3776      3777      3776      3777      3780      3781
      3776      3777      3780      3782      3776      3777      3780      3788
      3777      3780      3782      3783      3777      3780      3788      3789
      3777      3780      3788      3790      3777      3780      3788      3791
      3778      3777      3780      3781      3778      3777      3780      3782
      3778      3777      3780      3788      3779      3777      3780      3781
      3779      3777      3780      3782      3779      3777      3780      3788
      3780      3782      3783      3784      3780      3782      3783      3785
      3780      3788      3791      3792      3781      3780      3782      3783
      3781      3780      3788      3789      3781      3780      3788      3790
      3781      3780      3788      3791      3782      3780      3788      3789
      3782      3780      3788      3790      3782      3780      3788      3791
      3782      3783      3785      3786      3782      3783      3785      3787
      3782      3783      3785      3797      3783      3782      3780      3788
      3783      3785      3797      3798      3783      3785      3797      3799
      3783      3785      3797      3800      3784      3783      3785      3786
      3784      3783      3785      3787      3784      3783      3785      3797
      3785      3797      3800      3801      3785      3797      3800      3802
      3785      3797      3800      3803      3786      3785      3797      3798
      3786      3785      3797      3799      3786      3785      3797      3800
      3787      3785      3797      3798      3787      3785      3797      3799
      3787      3785      3797      3800      3788      3791      3792      3793
      3788      3791      3792      3794      3789      3788      3791      3792
      3790      3788      3791      3792      3791      3792      3794      3795
      3791      3792      3794      3796      3791      3792      3794      3844
      3792      3794      3844      3845      3792      3794      3844      3846
      3792      3794      3844      3847      3793      3792      3794      3795
      3793      3792      3794      3796      3793      3792      3794      3844
      3794      3844      3847      3848      3794      3844      3847      3849
      3794      3844      3847      3850      3795      3794      3844      3845
      3795      3794      3844      3846      3795      3794      3844      3847
      3796      3794      3844      3845      3796      3794      3844      3846
      3796      3794      3844      3847      3797      3800      3803      3804
      3797      3800      3803      3805      3797      3800      3803      3806
      3798      3797      3800      3801      3798      3797      3800      3802
      3798      3797      3800      3803      3799      3797      3800      3801
      3799      3797      3800      3802      3799      3797      3800      3803
      3800      3803      3806      3807      3800      3803      3806      3808
      3800      3803      3806      3809      3801      3800      3803      3804
      3801      3800      3803      3805      3801      3800      3803      3806
      3802      3800      3803      3804      3802      3800      3803      3805
      3802      3800      3803      3806      3803      3806      3809      3810
      3803      3806      3809      3811      3803      3806      3809      3812
      3804      3803      3806      3807      3804      3803      3806      3808
      3804      3803      3806      3809      3805      3803      3806      3807
      3805      3803      3806      3808      3805      3803      3806      3809
      3806      3809      3812      3813      3806      3809      3812      3814
      3806      3809      3812      3815      3807      3806      3809      3810
      3807      3806      3809      3811      3807      3806      3809      3812
      3808      3806      3809      3810      3808      3806      3809      3811
      3808      3806      3809      3812      3809      3812      3815      3816
      3809      3812      3815      3817      3810      3809      3812      3813
      3810      3809      3812      3814      3810      3809      3812      3815
      3811      3809      3812      3813      3811      3809      3812      3814
      3811      3809      3812      3815      3812      3815      3817      3818
      3812      3815      3817      3819      3813      3812      3815      3816
      3813      3812      3815      3817      3814      3812      3815      3816
      3814      3812      3815      3817      3815      3817      3819      3820
      3815      3817      3819      3821      3815      3817      3819      3822
      3816      3815      3817      3818      3816      3815      3817      3819
      3817      3819      3822      3823      3817      3819      3822      3824
      3817      3819      3822      3825      3818      3817      3819      3820
      3818      3817      3819      3821      3818      3817      3819      3822
      3819      3822      3825      3826      3819      3822      3825      3827
      3819      3822      3825      3828      3820      3819      3822      3823
      3820      3819      3822      3824      3820      3819      3822      3825
      3821      3819      3822      3823      3821      3819      3822      3824
      3821      3819      3822      3825      3822      3825      3828      3829
      3822      3825      3828      3830      3822      3825      3828      3831
      3823      3822      3825      3826      3823      3822      3825      3827
      3823      3822      3825      3828      3824      3822      3825      3826
      3824      3822      3825      3827      3824      3822      3825      3828
      3825      3828      3831      3832      3825      3828      3831      3833
      3825      3828      3831      3834      3826      3825      3828      3829
      3826      3825      3828      3830      3826      3825      3828      3831
      3827      3825      3828      3829      3827      3825      3828      3830
      3827      3825      3828      3831      3828      3831      3834      3835
      3828      3831      3834      3836      3828      3831      3834      3837
      3829      3828      3831      3832      3829      3828      3831      3833
      3829      3828      3831      3834      3830      3828      3831      3832
      3830      3828      3831      3833      3830      3828      3831      3834
      3831      3834      3837      3838      3831      3834      3837      3839
      3831      3834      3837      3840      3832      3831      3834      3835
      3832      3831      3834      3836      3832      3831      3834      3837
      3833      3831      3834      3835      3833      3831      3834      3836
      3833      3831      3834      3837      3834      3837      3840      3841
      3834      3837      3840      3842      3834      3837      3840      3843
      3835      3834      3837      3838      3835      3834      3837      3839
      3835      3834      3837      3840      3836      3834      3837      3838
      3836      3834      3837      3839      3836      3834      3837      3840
      3838      3837      3840      3841      3838      3837      3840      3842
      3838      3837      3840      3843      3839      3837      3840      3841
      3839      3837      3840      3842      3839      3837      3840      3843
      3844      3847      3850      3851      3844      3847      3850      3852
      3844      3847      3850      3853      3845      3844      3847      3848
      3845      3844      3847      3849      3845      3844      3847      3850
      3846      3844      3847      3848      3846      3844      3847      3849
      3846      3844      3847      3850      3847      3850      3853      3854
      3847      3850      3853      3855      3847      3850      3853      3856
      3848      3847      3850      3851      3848      3847      3850      3852
      3848      3847      3850      3853      3849      3847      3850      3851
      3849      3847      3850      3852      3849      3847      3850      3853
      3850      3853      3856      3857      3850      3853      3856      3858
      3850      3853      3856      3859      3851      3850      3853      3854
      3851      3850      3853      3855      3851      3850      3853      3856
      3852      3850      3853      3854      3852      3850      3853      3855
      3852      3850      3853      3856      3853      3856      3859      3860
      3853      3856      3859      3861      3853      3856      3859      3862
      3854      3853      3856      3857      3854      3853      3856      3858
      3854      3853      3856      3859      3855      3853      3856      3857
      3855      3853      3856      3858      3855      3853      3856      3859
      3856      3859      3862      3863      3856      3859      3862      3864
      3856      3859      3862      3865      3857      3856      3859      3860
      3857      3856      3859      3861      3857      3856      3859      3862
      3858      3856      3859      3860      3858      3856      3859      3861
      3858      3856      3859      3862      3859      3862      3865      3866
      3859      3862      3865      3867      3859      3862      3865      3868
      3860      3859      3862      3863      3860      3859      3862      3864
      3860      3859      3862      3865      3861      3859      3862      3863
      3861      3859      3862      3864      3861      3859      3862      3865
      3862      3865      3868      3869      3862      3865      3868      3870
      3862      3865      3868      3871      3863      3862      3865      3866
      3863      3862      3865      3867      3863      3862      3865      3868
      3864      3862      3865      3866      3864      3862      3865      3867
      3864      3862      3865      3868      3865      3868      3871      3872
      3865      3868      3871      3873      3865      3868      3871      3874
      3866      3865      3868      3869      3866      3865      3868      3870
      3866      3865      3868      3871      3867      3865      3868      3869
      3867      3865      3868      3870      3867      3865      3868      3871
      3868      3871      3874      3875      3868      3871      3874      3876
      3868      3871      3874      3877      3869      3868      3871      3872
      3869      3868      3871      3873      3869      3868      3871      3874
      3870      3868      3871      3872      3870      3868      3871      3873
      3870      3868      3871      3874      3871      3874      3877      3878
      3871      3874      3877      3879      3871      3874      3877      3880
      3872      3871      3874      3875      3872      3871      3874      3876
      3872      3871      3874      3877      3873      3871      3874      3875
      3873      3871      3874      3876      3873      3871      3874      3877
      3874      3877      3880      3881      3874      3877      3880      3882
      3874      3877      3880      3883      3875      3874      3877      3878
      3875      3874      3877      3879      3875      3874      3877      3880
      3876      3874      3877      3878      3876      3874      3877      3879
      3876      3874      3877      3880      3877      3880      3883      3884
      3877      3880      3883      3885      3877      3880      3883      3886
      3878      3877      3880      3881      3878      3877      3880      3882
      3878      3877      3880      3883      3879      3877      3880      3881
      3879      3877      3880      3882      3879      3877      3880      3883
      3881      3880      3883      3884      3881      3880      3883      3885
      3881      3880      3883      3886      3882      3880      3883      3884
      3882      3880      3883      3885      3882      3880      3883      3886
      3887      3888      3903      3904      3887      3888      3903      3905
      3887      3888      3903      3909      3888      3887      3891      3892
      3888      3887      3891      3893      3888      3887      3891      3894
      3888      3887      3895      3896      3888      3887      3895      3897
      3888      3887      3895      3898      3888      3887      3899      3900
      3888      3887      3899      3901      3888      3887      3899      3902
      3888      3903      3909      3906      3889      3888      3887      3891
      3889      3888      3887      3895      3889      3888      3887      3899
      3889      3888      3903      3904      3889      3888      3903      3905
      3889      3888      3903      3909      3890      3888      3887      3891
      3890      3888      3887      3895      3890      3888      3887      3899
      3890      3888      3903      3904      3890      3888      3903      3905
      3890      3888      3903      3909      3891      3887      3888      3903
      3891      3887      3895      3896      3891      3887      3895      3897
      3891      3887      3895      3898      3891      3887      3899      3900
      3891      3887      3899      3901      3891      3887      3899      3902
      3892      3891      3887      3895      3892      3891      3887      3899
      3893      3891      3887      3895      3893      3891      3887      3899
      3894      3891      3887      3895      3894      3891      3887      3899
      3895      3887      3888      3903      3895      3887      3899      3900
      3895      3887      3899      3901      3895      3887      3899      3902
      3896      3895      3887      3899      3897      3895      3887      3899
      3898      3895      3887      3899      3899      3887      3888      3903
      3903      3909      3906      3907      3903      3909      3906      3908
      3903      3909      3906      3910      3904      3903      3909      3906
      3905      3903      3909      3906      3906      3910      3911      3912
      3906      3910      3911      3913      3906      3910      3911      3914
      3907      3906      3910      3911      3908      3906      3910      3911
      3909      3906      3910      3911      3910      3911      3914      3915
      3910      3911      3914      3916      3910      3911      3914      3922
      3911      3914      3916      3917      3911      3914      3922      3923
      3911      3914      3922      3924      3911      3914      3922      3925
      3912      3911      3914      3915      3912      3911      3914      3916
      3912      3911      3914      3922      3913      3911      3914      3915
      3913      3911      3914      3916      3913      3911      3914      3922
      3914      3916      3917      3918      3914      3916      3917      3919
      3914      3922      3925      3926      3915      3914      3916      3917
      3915      3914      3922      3923      3915      3914      3922      3924
      3915      3914      3922      3925      3916      3914      3922      3923
      3916      3914      3922      3924      3916      3914      3922      3925
      3916      3917      3919      3920      3916      3917      3919      3921
      3916      3917      3919      3931      3917      3916      3914      3922
      3917      3919      3931      3932      3917      3919      3931      3933
      3917      3919      3931      3934      3918      3917      3919      3920
      3918      3917      3919      3921      3918      3917      3919      3931
      3919      3931      3934      3935      3919      3931      3934      3936
      3919      3931      3934      3937      3920      3919      3931      3932
      3920      3919      3931      3933      3920      3919      3931      3934
      3921      3919      3931      3932      3921      3919      3931      3933
      3921      3919      3931      3934      3922      3925      3926      3927
      3922      3925      3926      3928      3923      3922      3925      3926
      3924      3922      3925      3926      3925      3926      3928      3929
      3925      3926      3928      3930      3925      3926      3928      3978
      3926      3928      3978      3979      3926      3928      3978      3980
      3926      3928      3978      3981      3927      3926      3928      3929
      3927      3926      3928      3930      3927      3926      3928      3978
      3928      3978      3981      3982      3928      3978      3981      3983
      3928      3978      3981      3984      3929      3928      3978      3979
      3929      3928      3978      3980      3929      3928      3978      3981
      3930      3928      3978      3979      3930      3928      3978      3980
      3930      3928      3978      3981      3931      3934      3937      3938
      3931      3934      3937      3939      3931      3934      3937      3940
      3932      3931      3934      3935      3932      3931      3934      3936
      3932      3931      3934      3937      3933      3931      3934      3935
      3933      3931      3934      3936      3933      3931      3934      3937
      3934      3937      3940      3941      3934      3937      3940      3942
      3934      3937      3940      3943      3935      3934      3937      3938
      3935      3934      3937      3939      3935      3934      3937      3940
      3936      3934      3937      3938      3936      3934      3937      3939
      3936      3934      3937      3940      3937      3940      3943      3944
      3937      3940      3943      3945      3937      3940      3943      3946
      3938      3937      3940      3941      3938      3937      3940      3942
      3938      3937      3940      3943      3939      3937      3940      3941
      3939      3937      3940      3942      3939      3937      3940      3943
      3940      3943      3946      3947      3940      3943      3946      3948
      3940      3943      3946      3949      3941      3940      3943      3944
      3941      3940      3943      3945      3941      3940      3943      3946
      3942      3940      3943      3944      3942      3940      3943      3945
      3942      3940      3943      3946      3943      3946      3949      3950
      3943      3946      3949      3951      3944      3943      3946      3947
      3944      3943      3946      3948      3944      3943      3946      3949
      3945      3943      3946      3947      3945      3943      3946      3948
      3945      3943      3946      3949      3946      3949      3951      3952
      3946      3949      3951      3953      3947      3946      3949      3950
      3947      3946      3949      3951      3948      3946      3949      3950
      3948      3946      3949      3951      3949      3951      3953      3954
      3949      3951      3953      3955      3949      3951      3953      3956
      3950      3949      3951      3952      3950      3949      3951      3953
      3951      3953      3956      3957      3951      3953      3956      3958
      3951      3953      3956      3959      3952      3951      3953      3954
      3952      3951      3953      3955      3952      3951      3953      3956
      3953      3956      3959      3960      3953      3956      3959      3961
      3953      3956      3959      3962      3954      3953      3956      3957
      3954      3953      3956      3958      3954      3953      3956      3959
      3955      3953      3956      3957      3955      3953      3956      3958
      3955      3953      3956      3959      3956      3959      3962      3963
      3956      3959      3962      3964      3956      3959      3962      3965
      3957      3956      3959      3960      3957      3956      3959      3961
      3957      3956      3959      3962      3958      3956      3959      3960
      3958      3956      3959      3961      3958      3956      3959      3962
      3959      3962      3965      3966      3959      3962      3965      3967
      3959      3962      3965      3968      3960      3959      3962      3963
      3960      3959      3962      3964      3960      3959      3962      3965
      3961      3959      3962      3963      3961      3959      3962      3964
      3961      3959      3962      3965      3962      3965      3968      3969
      3962      3965      3968      3970      3962      3965      3968      3971
      3963      3962      3965      3966      3963      3962      3965      3967
      3963      3962      3965      3968      3964      3962      3965      3966
      3964      3962      3965      3967      3964      3962      3965      3968
      3965      3968      3971      3972      3965      3968      3971      3973
      3965      3968      3971      3974      3966      3965      3968      3969
      3966      3965      3968      3970      3966      3965      3968      3971
      3967      3965      3968      3969      3967      3965      3968      3970
      3967      3965      3968      3971      3968      3971      3974      3975
      3968      3971      3974      3976      3968      3971      3974      3977
      3969      3968      3971      3972      3969      3968      3971      3973
      3969      3968      3971      3974      3970      3968      3971      3972
      3970      3968      3971      3973      3970      3968      3971      3974
      3972      3971      3974      3975      3972      3971      3974      3976
      3972      3971      3974      3977      3973      3971      3974      3975
      3973      3971      3974      3976      3973      3971      3974      3977
      3978      3981      3984      3985      3978      3981      3984      3986
      3978      3981      3984      3987      3979      3978      3981      3982
      3979      3978      3981      3983      3979      3978      3981      3984
      3980      3978      3981      3982      3980      3978      3981      3983
      3980      3978      3981      3984      3981      3984      3987      3988
      3981      3984      3987      3989      3981      3984      3987      3990
      3982      3981      3984      3985      3982      3981      3984      3986
      3982      3981      3984      3987      3983      3981      3984      3985
      3983      3981      3984      3986      3983      3981      3984      3987
      3984      3987      3990      3991      3984      3987      3990      3992
      3984      3987      3990      3993      3985      3984      3987      3988
      3985      3984      3987      3989      3985      3984      3987      3990
      3986      3984      3987      3988      3986      3984      3987      3989
      3986      3984      3987      3990      3987      3990      3993      3994
      3987      3990      3993      3995      3987      3990      3993      3996
      3988      3987      3990      3991      3988      3987      3990      3992
      3988      3987      3990      3993      3989      3987      3990      3991
      3989      3987      3990      3992      3989      3987      3990      3993
      3990      3993      3996      3997      3990      3993      3996      3998
      3990      3993      3996      3999      3991      3990      3993      3994
      3991      3990      3993      3995      3991      3990      3993      3996
      3992      3990      3993      3994      3992      3990      3993      3995
      3992      3990      3993      3996      3993      3996      3999      4000
      3993      3996      3999      4001      3993      3996      3999      4002
      3994      3993      3996      3997      3994      3993      3996      3998
      3994      3993      3996      3999      3995      3993      3996      3997
      3995      3993      3996      3998      3995      3993      3996      3999
      3996      3999      4002      4003      3996      3999      4002      4004
      3996      3999      4002      4005      3997      3996      3999      4000
      3997      3996      3999      4001      3997      3996      3999      4002
      3998      3996      3999      4000      3998      3996      3999      4001
      3998      3996      3999      4002      3999      4002      4005      4006
      3999      4002      4005      4007      3999      4002      4005      4008
      4000      3999      4002      4003      4000      3999      4002      4004
      4000      3999      4002      4005      4001      3999      4002      4003
      4001      3999      4002      4004      4001      3999      4002      4005
      4002      4005      4008      4009      4002      4005      4008      4010
      4002      4005      4008      4011      4003      4002      4005      4006
      4003      4002      4005      4007      4003      4002      4005      4008
      4004      4002      4005      4006      4004      4002      4005      4007
      4004      4002      4005      4008      4005      4008      4011      4012
      4005      4008      4011      4013      4005      4008      4011      4014
      4006      4005      4008      4009      4006      4005      4008      4010
      4006      4005      4008      4011      4007      4005      4008      4009
      4007      4005      4008      4010      4007      4005      4008      4011
      4008      4011      4014      4015      4008      4011      4014      4016
      4008      4011      4014      4017      4009      4008      4011      4012
      4009      4008      4011      4013      4009      4008      4011      4014
      4010      4008      4011      4012      4010      4008      4011      4013
      4010      4008      4011      4014      4011      4014      4017      4018
      4011      4014      4017      4019      4011      4014      4017      4020
      4012      4011      4014      4015      4012      4011      4014      4016
      4012      4011      4014      4017      4013      4011      4014      4015
      4013      4011      4014      4016      4013      4011      4014      4017
      4015      4014      4017      4018      4015      4014      4017      4019
      4015      4014      4017      4020      4016      4014      4017      4018
      4016      4014      4017      4019      4016      4014      4017      4020
      4021      4022      4037      4038      4021      4022      4037      4039
      4021      4022      4037      4043      4022      4021      4025      4026
      4022      4021      4025      4027      4022      4021      4025      4028
      4022      4021      4029      4030      4022      4021      4029      4031
      4022      4021      4029      4032      4022      4021      4033      4034
      4022      4021      4033      4035      4022      4021      4033      4036
      4022      4037      4043      4040      4023      4022      4021      4025
      4023      4022      4021      4029      4023      4022      4021      4033
      4023      4022      4037      4038      4023      4022      4037      4039
      4023      4022      4037      4043      4024      4022      4021      4025
      4024      4022      4021      4029      4024      4022      4021      4033
      4024      4022      4037      4038      4024      4022      4037      4039
      4024      4022      4037      4043      4025      4021      4022      4037
      4025      4021      4029      4030      4025      4021      4029      4031
      4025      4021      4029      4032      4025      4021      4033      4034
      4025      4021      4033      4035      4025      4021      4033      4036
      4026      4025      4021      4029      4026      4025      4021      4033
      4027      4025      4021      4029      4027      4025      4021      4033
      4028      4025      4021      4029      4028      4025      4021      4033
      4029      4021      4022      4037      4029      4021      4033      4034
      4029      4021      4033      4035      4029      4021      4033      4036
      4030      4029      4021      4033      4031      4029      4021      4033
      4032      4029      4021      4033      4033      4021      4022      4037
      4037      4043      4040      4041      4037      4043      4040      4042
      4037      4043      4040      4044      4038      4037      4043      4040
      4039      4037      4043      4040      4040      4044      4045      4046
      4040      4044      4045      4047      4040      4044      4045      4048
      4041      4040      4044      4045      4042      4040      4044      4045
      4043      4040      4044      4045      4044      4045      4048      4049
      4044      4045      4048      4050      4044      4045      4048      4056
      4045      4048      4050      4051      4045      4048      4056      4057
      4045      4048      4056      4058      4045      4048      4056      4059
      4046      4045      4048      4049      4046      4045      4048      4050
      4046      4045      4048      4056      4047      4045      4048      4049
      4047      4045      4048      4050      4047      4045      4048      4056
      4048      4050      4051      4052      4048      4050      4051      4053
      4048      4056      4059      4060      4049      4048      4050      4051
      4049      4048      4056      4057      4049      4048      4056      4058
      4049      4048      4056      4059      4050      4048      4056      4057
      4050      4048      4056      4058      4050      4048      4056      4059
      4050      4051      4053      4054      4050      4051      4053      4055
      4050      4051      4053      4065      4051      4050      4048      4056
      4051      4053      4065      4066      4051      4053      4065      4067
      4051      4053      4065      4068      4052      4051      4053      4054
      4052      4051      4053      4055      4052      4051      4053      4065
      4053      4065      4068      4069      4053      4065      4068      4070
      4053      4065      4068      4071      4054      4053      4065      4066
      4054      4053      4065      4067      4054      4053      4065      4068
      4055      4053      4065      4066      4055      4053      4065      4067
      4055      4053      4065      4068      4056      4059      4060      4061
      4056      4059      4060      4062      4057      4056      4059      4060
      4058      4056      4059      4060      4059      4060      4062      4063
      4059      4060      4062      4064      4059      4060      4062      4112
      4060      4062      4112      4113      4060      4062      4112      4114
      4060      4062      4112      4115      4061      4060      4062      4063
      4061      4060      4062      4064      4061      4060      4062      4112
      4062      4112      4115      4116      4062      4112      4115      4117
      4062      4112      4115      4118      4063      4062      4112      4113
      4063      4062      4112      4114      4063      4062      4112      4115
      4064      4062      4112      4113      4064      4062      4112      4114
      4064      4062      4112      4115      4065      4068      4071      4072
      4065      4068      4071      4073      4065      4068      4071      4074
      4066      4065      4068      4069      4066      4065      4068      4070
      4066      4065      4068      4071      4067      4065      4068      4069
      4067      4065      4068      4070      4067      4065      4068      4071
      4068      4071      4074      4075      4068      4071      4074      4076
      4068      4071      4074      4077      4069      4068      4071      4072
      4069      4068      4071      4073      4069      4068      4071      4074
      4070      4068      4071      4072      4070      4068      4071      4073
      4070      4068      4071      4074      4071      4074      4077      4078
      4071      4074      4077      4079      4071      4074      4077      4080
      4072      4071      4074      4075      4072      4071      4074      4076
      4072      4071      4074      4077      4073      4071      4074      4075
      4073      4071      4074      4076      4073      4071      4074      4077
      4074      4077      4080      4081      4074      4077      4080      4082
      4074      4077      4080      4083      4075      4074      4077      4078
      4075      4074      4077      4079      4075      4074      4077      4080
      4076      4074      4077      4078      4076      4074      4077      4079
      4076      4074      4077      4080      4077      4080      4083      4084
      4077      4080      4083      4085      4078      4077      4080      4081
      4078      4077      4080      4082      4078      4077      4080      4083
      4079      4077      4080      4081      4079      4077      4080      4082
      4079      4077      4080      4083      4080      4083      4085      4086
      4080      4083      4085      4087      4081      4080      4083      4084
      4081      4080      4083      4085      4082      4080      4083      4084
      4082      4080      4083      4085      4083      4085      4087      4088
      4083      4085      4087      4089      4083      4085      4087      4090
      4084      4083      4085      4086      4084      4083      4085      4087
      4085      4087      4090      4091      4085      4087      4090      4092
      4085      4087      4090      4093      4086      4085      4087      4088
      4086      4085      4087      4089      4086      4085      4087      4090
      4087      4090      4093      4094      4087      4090      4093      4095
      4087      4090      4093      4096      4088      4087      4090      4091
      4088      4087      4090      4092      4088      4087      4090      4093
      4089      4087      4090      4091      4089      4087      4090      4092
      4089      4087      4090      4093      4090      4093      4096      4097
      4090      4093      4096      4098      4090      4093      4096      4099
      4091      4090      4093      4094      4091      4090      4093      4095
      4091      4090      4093      4096      4092      4090      4093      4094
      4092      4090      4093      4095      4092      4090      4093      4096
      4093      4096      4099      4100      4093      4096      4099      4101
      4093      4096      4099      4102      4094      4093      4096      4097
      4094      4093      4096      4098      4094      4093      4096      4099
      4095      4093      4096      4097      4095      4093      4096      4098
      4095      4093      4096      4099      4096      4099      4102      4103
      4096      4099      4102      4104      4096      4099      4102      4105
      4097      4096      4099      4100      4097      4096      4099      4101
      4097      4096      4099      4102      4098      4096      4099      4100
      4098      4096      4099      4101      4098      4096      4099      4102
      4099      4102      4105      4106      4099      4102      4105      4107
      4099      4102      4105      4108      4100      4099      4102      4103
      4100      4099      4102      4104      4100      4099      4102      4105
      4101      4099      4102      4103      4101      4099      4102      4104
      4101      4099      4102      4105      4102      4105      4108      4109
      4102      4105      4108      4110      4102      4105      4108      4111
      4103      4102      4105      4106      4103      4102      4105      4107
      4103      4102      4105      4108      4104      4102      4105      4106
      4104      4102      4105      4107      4104      4102      4105      4108
      4106      4105      4108      4109      4106      4105      4108      4110
      4106      4105      4108      4111      4107      4105      4108      4109
      4107      4105      4108      4110      4107      4105      4108      4111
      4112      4115      4118      4119      4112      4115      4118      4120
      4112      4115      4118      4121      4113      4112      4115      4116
      4113      4112      4115      4117      4113      4112      4115      4118
      4114      4112      4115      4116      4114      4112      4115      4117
      4114      4112      4115      4118      4115      4118      4121      4122
      4115      4118      4121      4123      4115      4118      4121      4124
      4116      4115      4118      4119      4116      4115      4118      4120
      4116      4115      4118      4121      4117      4115      4118      4119
      4117      4115      4118      4120      4117      4115      4118      4121
      4118      4121      4124      4125      4118      4121      4124      4126
      4118      4121      4124      4127      4119      4118      4121      4122
      4119      4118      4121      4123      4119      4118      4121      4124
      4120      4118      4121      4122      4120      4118      4121      4123
      4120      4118      4121      4124      4121      4124      4127      4128
      4121      4124      4127      4129      4121      4124      4127      4130
      4122      4121      4124      4125      4122      4121      4124      4126
      4122      4121      4124      4127      4123      4121      4124      4125
      4123      4121      4124      4126      4123      4121      4124      4127
      4124      4127      4130      4131      4124      4127      4130      4132
      4124      4127      4130      4133      4125      4124      4127      4128
      4125      4124      4127      4129      4125      4124      4127      4130
      4126      4124      4127      4128      4126      4124      4127      4129
      4126      4124      4127      4130      4127      4130      4133      4134
      4127      4130      4133      4135      4127      4130      4133      4136
      4128      4127      4130      4131      4128      4127      4130      4132
      4128      4127      4130      4133      4129      4127      4130      4131
      4129      4127      4130      4132      4129      4127      4130      4133
      4130      4133      4136      4137      4130      4133      4136      4138
      4130      4133      4136      4139      4131      4130      4133      4134
      4131      4130      4133      4135      4131      4130      4133      4136
      4132      4130      4133      4134      4132      4130      4133      4135
      4132      4130      4133      4136      4133      4136      4139      4140
      4133      4136      4139      4141      4133      4136      4139      4142
      4134      4133      4136      4137      4134      4133      4136      4138
      4134      4133      4136      4139      4135      4133      4136      4137
      4135      4133      4136      4138      4135      4133      4136      4139
      4136      4139      4142      4143      4136      4139      4142      4144
      4136      4139      4142      4145      4137      4136      4139      4140
      4137      4136      4139      4141      4137      4136      4139      4142
      4138      4136      4139      4140      4138      4136      4139      4141
      4138      4136      4139      4142      4139      4142      4145      4146
      4139      4142      4145      4147      4139      4142      4145      4148
      4140      4139      4142      4143      4140      4139      4142      4144
      4140      4139      4142      4145      4141      4139      4142      4143
      4141      4139      4142      4144      4141      4139      4142      4145
      4142      4145      4148      4149      4142      4145      4148      4150
      4142      4145      4148      4151      4143      4142      4145      4146
      4143      4142      4145      4147      4143      4142      4145      4148
      4144      4142      4145      4146      4144      4142      4145      4147
      4144      4142      4145      4148      4145      4148      4151      4152
      4145      4148      4151      4153      4145      4148      4151      4154
      4146      4145      4148      4149      4146      4145      4148      4150
      4146      4145      4148      4151      4147      4145      4148      4149
      4147      4145      4148      4150      4147      4145      4148      4151
      4149      4148      4151      4152      4149      4148      4151      4153
      4149      4148      4151      4154      4150      4148      4151      4152
      4150      4148      4151      4153      4150      4148      4151      4154
      4155      4156      4171      4172      4155      4156      4171      4173
      4155      4156      4171      4177      4156      4155      4159      4160
      4156      4155      4159      4161      4156      4155      4159      4162
      4156      4155      4163      4164      4156      4155      4163      4165
      4156      4155      4163      4166      4156      4155      4167      4168
      4156      4155      4167      4169      4156      4155      4167      4170
      4156      4171      4177      4174      4157      4156      4155      4159
      4157      4156      4155      4163      4157      4156      4155      4167
      4157      4156      4171      4172      4157      4156      4171      4173
      4157      4156      4171      4177      4158      4156      4155      4159
      4158      4156      4155      4163      4158      4156      4155      4167
      4158      4156      4171      4172      4158      4156      4171      4173
      4158      4156      4171      4177      4159      4155      4156      4171
      4159      4155      4163      4164      4159      4155      4163      4165
      4159      4155      4163      4166      4159      4155      4167      4168
      4159      4155      4167      4169      4159      4155      4167      4170
      4160      4159      4155      4163      4160      4159      4155      4167
      4161      4159      4155      4163      4161      4159      4155      4167
      4162      4159      4155      4163      4162      4159      4155      4167
      4163      4155      4156      4171      4163      4155      4167      4168
      4163      4155      4167      4169      4163      4155      4167      4170
      4164      4163      4155      4167      4165      4163      4155      4167
      4166      4163      4155      4167      4167      4155      4156      4171
      4171      4177      4174      4175      4171      4177      4174      4176
      4171      4177      4174      4178      4172      4171      4177      4174
      4173      4171      4177      4174      4174      4178      4179      4180
      4174      4178      4179      4181      4174      4178      4179      4182
      4175      4174      4178      4179      4176      4174      4178      4179
      4177      4174      4178      4179      4178      4179      4182      4183
      4178      4179      4182      4184      4178      4179      4182      4190
      4179      4182      4184      4185      4179      4182      4190      4191
      4179      4182      4190      4192      4179      4182      4190      4193
      4180      4179      4182      4183      4180      4179      4182      4184
      4180      4179      4182      4190      4181      4179      4182      4183
      4181      4179      4182      4184      4181      4179      4182      4190
      4182      4184      4185      4186      4182      4184      4185      4187
      4182      4190      4193      4194      4183      4182      4184      4185
      4183      4182      4190      4191      4183      4182      4190      4192
      4183      4182      4190      4193      4184      4182      4190      4191
      4184      4182      4190      4192      4184      4182      4190      4193
      4184      4185      4187      4188      4184      4185      4187      4189
      4184      4185      4187      4199      4185      4184      4182      4190
      4185      4187      4199      4200      4185      4187      4199      4201
      4185      4187      4199      4202      4186      4185      4187      4188
      4186      4185      4187      4189      4186      4185      4187      4199
      4187      4199      4202      4203      4187      4199      4202      4204
      4187      4199      4202      4205      4188      4187      4199      4200
      4188      4187      4199      4201      4188      4187      4199      4202
      4189      4187      4199      4200      4189      4187      4199      4201
      4189      4187      4199      4202      4190      4193      4194      4195
      4190      4193      4194      4196      4191      4190      4193      4194
      4192      4190      4193      4194      4193      4194      4196      4197
      4193      4194      4196      4198      4193      4194      4196      4246
      4194      4196      4246      4247      4194      4196      4246      4248
      4194      4196      4246      4249      4195      4194      4196      4197
      4195      4194      4196      4198      4195      4194      4196      4246
      4196      4246      4249      4250      4196      4246      4249      4251
      4196      4246      4249      4252      4197      4196      4246      4247
      4197      4196      4246      4248      4197      4196      4246      4249
      4198      4196      4246      4247      4198      4196      4246      4248
      4198      4196      4246      4249      4199      4202      4205      4206
      4199      4202      4205      4207      4199      4202      4205      4208
      4200      4199      4202      4203      4200      4199      4202      4204
      4200      4199      4202      4205      4201      4199      4202      4203
      4201      4199      4202      4204      4201      4199      4202      4205
      4202      4205      4208      4209      4202      4205      4208      4210
      4202      4205      4208      4211      4203      4202      4205      4206
      4203      4202      4205      4207      4203      4202      4205      4208
      4204      4202      4205      4206      4204      4202      4205      4207
      4204      4202      4205      4208      4205      4208      4211      4212
      4205      4208      4211      4213      4205      4208      4211      4214
      4206      4205      4208      4209      4206      4205      4208      4210
      4206      4205      4208      4211      4207      4205      4208      4209
      4207      4205      4208      4210      4207      4205      4208      4211
      4208      4211      4214      4215      4208      4211      4214      4216
      4208      4211      4214      4217      4209      4208      4211      4212
      4209      4208      4211      4213      4209      4208      4211      4214
      4210      4208      4211      4212      4210      4208      4211      4213
      4210      4208      4211      4214      4211      4214      4217      4218
      4211      4214      4217      4219      4212      4211      4214      4215
      4212      4211      4214      4216      4212      4211      4214      4217
      4213      4211      4214      4215      4213      4211      4214      4216
      4213      4211      4214      4217      4214      4217      4219      4220
      4214      4217      4219      4221      4215      4214      4217      4218
      4215      4214      4217      4219      4216      4214      4217      4218
      4216      4214      4217      4219      4217      4219      4221      4222
      4217      4219      4221      4223      4217      4219      4221      4224
      4218      4217      4219      4220      4218      4217      4219      4221
      4219      4221      4224      4225      4219      4221      4224      4226
      4219      4221      4224      4227      4220      4219      4221      4222
      4220      4219      4221      4223      4220      4219      4221      4224
      4221      4224      4227      4228      4221      4224      4227      4229
      4221      4224      4227      4230      4222      4221      4224      4225
      4222      4221      4224      4226      4222      4221      4224      4227
      4223      4221      4224      4225      4223      4221      4224      4226
      4223      4221      4224      4227      4224      4227      4230      4231
      4224      4227      4230      4232      4224      4227      4230      4233
      4225      4224      4227      4228      4225      4224      4227      4229
      4225      4224      4227      4230      4226      4224      4227      4228
      4226      4224      4227      4229      4226      4224      4227      4230
      4227      4230      4233      4234      4227      4230      4233      4235
      4227      4230      4233      4236      4228      4227      4230      4231
      4228      4227      4230      4232      4228      4227      4230      4233
      4229      4227      4230      4231      4229      4227      4230      4232
      4229      4227      4230      4233      4230      4233      4236      4237
      4230      4233      4236      4238      4230      4233      4236      4239
      4231      4230      4233      4234      4231      4230      4233      4235
      4231      4230      4233      4236      4232      4230      4233      4234
      4232      4230      4233      4235      4232      4230      4233      4236
      4233      4236      4239      4240      4233      4236      4239      4241
      4233      4236      4239      4242      4234      4233      4236      4237
      4234      4233      4236      4238      4234      4233      4236      4239
      4235      4233      4236      4237      4235      4233      4236      4238
      4235      4233      4236      4239      4236      4239      4242      4243
      4236      4239      4242      4244      4236      4239      4242      4245
      4237      4236      4239      4240      4237      4236      4239      4241
      4237      4236      4239      4242      4238      4236      4239      4240
      4238      4236      4239      4241      4238      4236      4239      4242
      4240      4239      4242      4243      4240      4239      4242      4244
      4240      4239      4242      4245      4241      4239      4242      4243
      4241      4239      4242      4244      4241      4239      4242      4245
      4246      4249      4252      4253      4246      4249      4252      4254
      4246      4249      4252      4255      4247      4246      4249      4250
      4247      4246      4249      4251      4247      4246      4249      4252
      4248      4246      4249      4250      4248      4246      4249      4251
      4248      4246      4249      4252      4249      4252      4255      4256
      4249      4252      4255      4257      4249      4252      4255      4258
      4250      4249      4252      4253      4250      4249      4252      4254
      4250      4249      4252      4255      4251      4249      4252      4253
      4251      4249      4252      4254      4251      4249      4252      4255
      4252      4255      4258      4259      4252      4255      4258      4260
      4252      4255      4258      4261      4253      4252      4255      4256
      4253      4252      4255      4257      4253      4252      4255      4258
      4254      4252      4255      4256      4254      4252      4255      4257
      4254      4252      4255      4258      4255      4258      4261      4262
      4255      4258      4261      4263      4255      4258      4261      4264
      4256      4255      4258      4259      4256      4255      4258      4260
      4256      4255      4258      4261      4257      4255      4258      4259
      4257      4255      4258      4260      4257      4255      4258      4261
      4258      4261      4264      4265      4258      4261      4264      4266
      4258      4261      4264      4267      4259      4258      4261      4262
      4259      4258      4261      4263      4259      4258      4261      4264
      4260      4258      4261      4262      4260      4258      4261      4263
      4260      4258      4261      4264      4261      4264      4267      4268
      4261      4264      4267      4269      4261      4264      4267      4270
      4262      4261      4264      4265      4262      4261      4264      4266
      4262      4261      4264      4267      4263      4261      4264      4265
      4263      4261      4264      4266      4263      4261      4264      4267
      4264      4267      4270      4271      4264      4267      4270      4272
      4264      4267      4270      4273      4265      4264      4267      4268
      4265      4264      4267      4269      4265      4264      4267      4270
      4266      4264      4267      4268      4266      4264      4267      4269
      4266      4264      4267      4270      4267      4270      4273      4274
      4267      4270      4273      4275      4267      4270      4273      4276
      4268      4267      4270      4271      4268      4267      4270      4272
      4268      4267      4270      4273      4269      4267      4270      4271
      4269      4267      4270      4272      4269      4267      4270      4273
      4270      4273      4276      4277      4270      4273      4276      4278
      4270      4273      4276      4279      4271      4270      4273      4274
      4271      4270      4273      4275      4271      4270      4273      4276
      4272      4270      4273      4274      4272      4270      4273      4275
      4272      4270      4273      4276      4273      4276      4279      4280
      4273      4276      4279      4281      4273      4276      4279      4282
      4274      4273      4276      4277      4274      4273      4276      4278
      4274      4273      4276      4279      4275      4273      4276      4277
      4275      4273      4276      4278      4275      4273      4276      4279
      4276      4279      4282      4283      4276      4279      4282      4284
      4276      4279      4282      4285      4277      4276      4279      4280
      4277      4276      4279      4281      4277      4276      4279      4282
      4278      4276      4279      4280      4278      4276      4279      4281
      4278      4276      4279      4282      4279      4282      4285      4286
      4279      4282      4285      4287      4279      4282      4285      4288
      4280      4279      4282      4283      4280      4279      4282      4284
      4280      4279      4282      4285      4281      4279      4282      4283
      4281      4279      4282      4284      4281      4279      4282      4285
      4283      4282      4285      4286      4283      4282      4285      4287
      4283      4282      4285      4288      4284      4282      4285      4286
      4284      4282      4285      4287      4284      4282      4285      4288
      4289      4290      4305      4306      4289      4290      4305      4307
      4289      4290      4305      4311      4290      4289      4293      4294
      4290      4289      4293      4295      4290      4289      4293      4296
      4290      4289      4297      4298      4290      4289      4297      4299
      4290      4289      4297      4300      4290      4289      4301      4302
      4290      4289      4301      4303      4290      4289      4301      4304
      4290      4305      4311      4308      4291      4290      4289      4293
      4291      4290      4289      4297      4291      4290      4289      4301
      4291      4290      4305      4306      4291      4290      4305      4307
      4291      4290      4305      4311      4292      4290      4289      4293
      4292      4290      4289      4297      4292      4290      4289      4301
      4292      4290      4305      4306      4292      4290      4305      4307
      4292      4290      4305      4311      4293      4289      4290      4305
      4293      4289      4297      4298      4293      4289      4297      4299
      4293      4289      4297      4300      4293      4289      4301      4302
      4293      4289      4301      4303      4293      4289      4301      4304
      4294      4293      4289      4297      4294      4293      4289      4301
      4295      4293      4289      4297      4295      4293      4289      4301
      4296      4293      4289      4297      4296      4293      4289      4301
      4297      4289      4290      4305      4297      4289      4301      4302
      4297      4289      4301      4303      4297      4289      4301      4304
      4298      4297      4289      4301      4299      4297      4289      4301
      4300      4297      4289      4301      4301      4289      4290      4305
      4305      4311      4308      4309      4305      4311      4308      4310
      4305      4311      4308      4312      4306      4305      4311      4308
      4307      4305      4311      4308      4308      4312      4313      4314
      4308      4312      4313      4315      4308      4312      4313      4316
      4309      4308      4312      4313      4310      4308      4312      4313
      4311      4308      4312      4313      4312      4313      4316      4317
      4312      4313      4316      4318      4312      4313      4316      4324
      4313      4316      4318      4319      4313      4316      4324      4325
      4313      4316      4324      4326      4313      4316      4324      4327
      4314      4313      4316      4317      4314      4313      4316      4318
      4314      4313      4316      4324      4315      4313      4316      4317
      4315      4313      4316      4318      4315      4313      4316      4324
      4316      4318      4319      4320      4316      4318      4319      4321
      4316      4324      4327      4328      4317      4316      4318      4319
      4317      4316      4324      4325      4317      4316      4324      4326
      4317      4316      4324      4327      4318      4316      4324      4325
      4318      4316      4324      4326      4318      4316      4324      4327
      4318      4319      4321      4322      4318      4319      4321      4323
      4318      4319      4321      4333      4319      4318      4316      4324
      4319      4321      4333      4334      4319      4321      4333      4335
      4319      4321      4333      4336      4320      4319      4321      4322
      4320      4319      4321      4323      4320      4319      4321      4333
      4321      4333      4336      4337      4321      4333      4336      4338
      4321      4333      4336      4339      4322      4321      4333      4334
      4322      4321      4333      4335      4322      4321      4333      4336
      4323      4321      4333      4334      4323      4321      4333      4335
      4323      4321      4333      4336      4324      4327      4328      4329
      4324      4327      4328      4330      4325      4324      4327      4328
      4326      4324      4327      4328      4327      4328      4330      4331
      4327      4328      4330      4332      4327      4328      4330      4380
      4328      4330      4380      4381      4328      4330      4380      4382
      4328      4330      4380      4383      4329      4328      4330      4331
      4329      4328      4330      4332      4329      4328      4330      4380
      4330      4380      4383      4384      4330      4380      4383      4385
      4330      4380      4383      4386      4331      4330      4380      4381
      4331      4330      4380      4382      4331      4330      4380      4383
      4332      4330      4380      4381      4332      4330      4380      4382
      4332      4330      4380      4383      4333      4336      4339      4340
      4333      4336      4339      4341      4333      4336      4339      4342
      4334      4333      4336      4337      4334      4333      4336      4338
      4334      4333      4336      4339      4335      4333      4336      4337
      4335      4333      4336      4338      4335      4333      4336      4339
      4336      4339      4342      4343      4336      4339      4342      4344
      4336      4339      4342      4345      4337      4336      4339      4340
      4337      4336      4339      4341      4337      4336      4339      4342
      4338      4336      4339      4340      4338      4336      4339      4341
      4338      4336      4339      4342      4339      4342      4345      4346
      4339      4342      4345      4347      4339      4342      4345      4348
      4340      4339      4342      4343      4340      4339      4342      4344
      4340      4339      4342      4345      4341      4339      4342      4343
      4341      4339      4342      4344      4341      4339      4342      4345
      4342      4345      4348      4349      4342      4345      4348      4350
      4342      4345      4348      4351      4343      4342      4345      4346
      4343      4342      4345      4347      4343      4342      4345      4348
      4344      4342      4345      4346      4344      4342      4345      4347
      4344      4342      4345      4348      4345      4348      4351      4352
      4345      4348      4351      4353      4346      4345      4348      4349
      4346      4345      4348      4350      4346      4345      4348      4351
      4347      4345      4348      4349      4347      4345      4348      4350
      4347      4345      4348      4351      4348      4351      4353      4354
      4348      4351      4353      4355      4349      4348      4351      4352
      4349      4348      4351      4353      4350      4348      4351      4352
      4350      4348      4351      4353      4351      4353      4355      4356
      4351      4353      4355      4357      4351      4353      4355      4358
      4352      4351      4353      4354      4352      4351      4353      4355
      4353      4355      4358      4359      4353      4355      4358      4360
      4353      4355      4358      4361      4354      4353      4355      4356
      4354      4353      4355      4357      4354      4353      4355      4358
      4355      4358      4361      4362      4355      4358      4361      4363
      4355      4358      4361      4364      4356      4355      4358      4359
      4356      4355      4358      4360      4356      4355      4358      4361
      4357      4355      4358      4359      4357      4355      4358      4360
      4357      4355      4358      4361      4358      4361      4364      4365
      4358      4361      4364      4366      4358      4361      4364      4367
      4359      4358      4361      4362      4359      4358      4361      4363
      4359      4358      4361      4364      4360      4358      4361      4362
      4360      4358      4361      4363      4360      4358      4361      4364
      4361      4364      4367      4368      4361      4364      4367      4369
      4361      4364      4367      4370      4362      4361      4364      4365
      4362      4361      4364      4366      4362      4361      4364      4367
      4363      4361      4364      4365      4363      4361      4364      4366
      4363      4361      4364      4367      4364      4367      4370      4371
      4364      4367      4370      4372      4364      4367      4370      4373
      4365      4364      4367      4368      4365      4364      4367      4369
      4365      4364      4367      4370      4366      4364      4367      4368
      4366      4364      4367      4369      4366      4364      4367      4370
      4367      4370      4373      4374      4367      4370      4373      4375
      4367      4370      4373      4376      4368      4367      4370      4371
      4368      4367      4370      4372      4368      4367      4370      4373
      4369      4367      4370      4371      4369      4367      4370      4372
      4369      4367      4370      4373      4370      4373      4376      4377
      4370      4373      4376      4378      4370      4373      4376      4379
      4371      4370      4373      4374      4371      4370      4373      4375
      4371      4370      4373      4376      4372      4370      4373      4374
      4372      4370      4373      4375      4372      4370      4373      4376
      4374      4373      4376      4377      4374      4373      4376      4378
      4374      4373      4376      4379      4375      4373      4376      4377
      4375      4373      4376      4378      4375      4373      4376      4379
      4380      4383      4386      4387      4380      4383      4386      4388
      4380      4383      4386      4389      4381      4380      4383      4384
      4381      4380      4383      4385      4381      4380      4383      4386
      4382      4380      4383      4384      4382      4380      4383      4385
      4382      4380      4383      4386      4383      4386      4389      4390
      4383      4386      4389      4391      4383      4386      4389      4392
      4384      4383      4386      4387      4384      4383      4386      4388
      4384      4383      4386      4389      4385      4383      4386      4387
      4385      4383      4386      4388      4385      4383      4386      4389
      4386      4389      4392      4393      4386      4389      4392      4394
      4386      4389      4392      4395      4387      4386      4389      4390
      4387      4386      4389      4391      4387      4386      4389      4392
      4388      4386      4389      4390      4388      4386      4389      4391
      4388      4386      4389      4392      4389      4392      4395      4396
      4389      4392      4395      4397      4389      4392      4395      4398
      4390      4389      4392      4393      4390      4389      4392      4394
      4390      4389      4392      4395      4391      4389      4392      4393
      4391      4389      4392      4394      4391      4389      4392      4395
      4392      4395      4398      4399      4392      4395      4398      4400
      4392      4395      4398      4401      4393      4392      4395      4396
      4393      4392      4395      4397      4393      4392      4395      4398
      4394      4392      4395      4396      4394      4392      4395      4397
      4394      4392      4395      4398      4395      4398      4401      4402
      4395      4398      4401      4403      4395      4398      4401      4404
      4396      4395      4398      4399      4396      4395      4398      4400
      4396      4395      4398      4401      4397      4395      4398      4399
      4397      4395      4398      4400      4397      4395      4398      4401
      4398      4401      4404      4405      4398      4401      4404      4406
      4398      4401      4404      4407      4399      4398      4401      4402
      4399      4398      4401      4403      4399      4398      4401      4404
      4400      4398      4401      4402      4400      4398      4401      4403
      4400      4398      4401      4404      4401      4404      4407      4408
      4401      4404      4407      4409      4401      4404      4407      4410
      4402      4401      4404      4405      4402      4401      4404      4406
      4402      4401      4404      4407      4403      4401      4404      4405
      4403      4401      4404      4406      4403      4401      4404      4407
      4404      4407      4410      4411      4404      4407      4410      4412
      4404      4407      4410      4413      4405      4404      4407      4408
      4405      4404      4407      4409      4405      4404      4407      4410
      4406      4404      4407      4408      4406      4404      4407      4409
      4406      4404      4407      4410      4407      4410      4413      4414
      4407      4410      4413      4415      4407      4410      4413      4416
      4408      4407      4410      4411      4408      4407      4410      4412
      4408      4407      4410      4413      4409      4407      4410      4411
      4409      4407      4410      4412      4409      4407      4410      4413
      4410      4413      4416      4417      4410      4413      4416      4418
      4410      4413      4416      4419      4411      4410      4413      4414
      4411      4410      4413      4415      4411      4410      4413      4416
      4412      4410      4413      4414      4412      4410      4413      4415
      4412      4410      4413      4416      4413      4416      4419      4420
      4413      4416      4419      4421      4413      4416      4419      4422
      4414      4413      4416      4417      4414      4413      4416      4418
      4414      4413      4416      4419      4415      4413      4416      4417
      4415      4413      4416      4418      4415      4413      4416      4419
      4417      4416      4419      4420      4417      4416      4419      4421
      4417      4416      4419      4422      4418      4416      4419      4420
      4418      4416      4419      4421      4418      4416      4419      4422
      4423      4424      4439      4440      4423      4424      4439      4441
      4423      4424      4439      4445      4424      4423      4427      4428
      4424      4423      4427      4429      4424      4423      4427      4430
      4424      4423      4431      4432      4424      4423      4431      4433
      4424      4423      4431      4434      4424      4423      4435      4436
      4424      4423      4435      4437      4424      4423      4435      4438
      4424      4439      4445      4442      4425      4424      4423      4427
      4425      4424      4423      4431      4425      4424      4423      4435
      4425      4424      4439      4440      4425      4424      4439      4441
      4425      4424      4439      4445      4426      4424      4423      4427
      4426      4424      4423      4431      4426      4424      4423      4435
      4426      4424      4439      4440      4426      4424      4439      4441
      4426      4424      4439      4445      4427      4423      4424      4439
      4427      4423      4431      4432      4427      4423      4431      4433
      4427      4423      4431      4434      4427      4423      4435      4436
      4427      4423      4435      4437      4427      4423      4435      4438
      4428      4427      4423      4431      4428      4427      4423      4435
      4429      4427      4423      4431      4429      4427      4423      4435
      4430      4427      4423      4431      4430      4427      4423      4435
      4431      4423      4424      4439      4431      4423      4435      4436
      4431      4423      4435      4437      4431      4423      4435      4438
      4432      4431      4423      4435      4433      4431      4423      4435
      4434      4431      4423      4435      4435      4423      4424      4439
      4439      4445      4442      4443      4439      4445      4442      4444
      4439      4445      4442      4446      4440      4439      4445      4442
      4441      4439      4445      4442      4442      4446      4447      4448
      4442      4446      4447      4449      4442      4446      4447      4450
      4443      4442      4446      4447      4444      4442      4446      4447
      4445      4442      4446      4447      4446      4447      4450      4451
      4446      4447      4450      4452      4446      4447      4450      4458
      4447      4450      4452      4453      4447      4450      4458      4459
      4447      4450      4458      4460      4447      4450      4458      4461
      4448      4447      4450      4451      4448      4447      4450      4452
      4448      4447      4450      4458      4449      4447      4450      4451
      4449      4447      4450      4452      4449      4447      4450      4458
      4450      4452      4453      4454      4450      4452      4453      4455
      4450      4458      4461      4462      4451      4450      4452      4453
      4451      4450      4458      4459      4451      4450      4458      4460
      4451      4450      4458      4461      4452      4450      4458      4459
      4452      4450      4458      4460      4452      4450      4458      4461
      4452      4453      4455      4456      4452      4453      4455      4457
      4452      4453      4455      4467      4453      4452      4450      4458
      4453      4455      4467      4468      4453      4455      4467      4469
      4453      4455      4467      4470      4454      4453      4455      4456
      4454      4453      4455      4457      4454      4453      4455      4467
      4455      4467      4470      4471      4455      4467      4470      4472
      4455      4467      4470      4473      4456      4455      4467      4468
      4456      4455      4467      4469      4456      4455      4467      4470
      4457      4455      4467      4468      4457      4455      4467      4469
      4457      4455      4467      4470      4458      4461      4462      4463
      4458      4461      4462      4464      4459      4458      4461      4462
      4460      4458      4461      4462      4461      4462      4464      4465
      4461      4462      4464      4466      4461      4462      4464      4514
      4462      4464      4514      4515      4462      4464      4514      4516
      4462      4464      4514      4517      4463      4462      4464      4465
      4463      4462      4464      4466      4463      4462      4464      4514
      4464      4514      4517      4518      4464      4514      4517      4519
      4464      4514      4517      4520      4465      4464      4514      4515
      4465      4464      4514      4516      4465      4464      4514      4517
      4466      4464      4514      4515      4466      4464      4514      4516
      4466      4464      4514      4517      4467      4470      4473      4474
      4467      4470      4473      4475      4467      4470      4473      4476
      4468      4467      4470      4471      4468      4467      4470      4472
      4468      4467      4470      4473      4469      4467      4470      4471
      4469      4467      4470      4472      4469      4467      4470      4473
      4470      4473      4476      4477      4470      4473      4476      4478
      4470      4473      4476      4479      4471      4470      4473      4474
      4471      4470      4473      4475      4471      4470      4473      4476
      4472      4470      4473      4474      4472      4470      4473      4475
      4472      4470      4473      4476      4473      4476      4479      4480
      4473      4476      4479      4481      4473      4476      4479      4482
      4474      4473      4476      4477      4474      4473      4476      4478
      4474      4473      4476      4479      4475      4473      4476      4477
      4475      4473      4476      4478      4475      4473      4476      4479
      4476      4479      4482      4483      4476      4479      4482      4484
      4476      4479      4482      4485      4477      4476      4479      4480
      4477      4476      4479      4481      4477      4476      4479      4482
      4478      4476      4479      4480      4478      4476      4479      4481
      4478      4476      4479      4482      4479      4482      4485      4486
      4479      4482      4485      4487      4480      4479      4482      4483
      4480      4479      4482      4484      4480      4479      4482      4485
      4481      4479      4482      4483      4481      4479      4482      4484
      4481      4479      4482      4485      4482      4485      4487      4488
      4482      4485      4487      4489      4483      4482      4485      4486
      4483      4482      4485      4487      4484      4482      4485      4486
      4484      4482      4485      4487      4485      4487      4489      4490
      4485      4487      4489      4491      4485      4487      4489      4492
      4486      4485      4487      4488      4486      4485      4487      4489
      4487      4489      4492      4493      4487      4489      4492      4494
      4487      4489      4492      4495      4488      4487      4489      4490
      4488      4487      4489      4491      4488      4487      4489      4492
      4489      4492      4495      4496      4489      4492      4495      4497
      4489      4492      4495      4498      4490      4489      4492      4493
      4490      4489      4492      4494      4490      4489      4492      4495
      4491      4489      4492      4493      4491      4489      4492      4494
      4491      4489      4492      4495      4492      4495      4498      4499
      4492      4495      4498      4500      4492      4495      4498      4501
      4493      4492      4495      4496      4493      4492      4495      4497
      4493      4492      4495      4498      4494      4492      4495      4496
      4494      4492      4495      4497      4494      4492      4495      4498
      4495      4498      4501      4502      4495      4498      4501      4503
      4495      4498      4501      4504      4496      4495      4498      4499
      4496      4495      4498      4500      4496      4495      4498      4501
      4497      4495      4498      4499      4497      4495      4498      4500
      4497      4495      4498      4501      4498      4501      4504      4505
      4498      4501      4504      4506      4498      4501      4504      4507
      4499      4498      4501      4502      4499      4498      4501      4503
      4499      4498      4501      4504      4500      4498      4501      4502
      4500      4498      4501      4503      4500      4498      4501      4504
      4501      4504      4507      4508      4501      4504      4507      4509
      4501      4504      4507      4510      4502      4501      4504      4505
      4502      4501      4504      4506      4502      4501      4504      4507
      4503      4501      4504      4505      4503      4501      4504      4506
      4503      4501      4504      4507      4504      4507      4510      4511
      4504      4507      4510      4512      4504      4507      4510      4513
      4505      4504      4507      4508      4505      4504      4507      4509
      4505      4504      4507      4510      4506      4504      4507      4508
      4506      4504      4507      4509      4506      4504      4507      4510
      4508      4507      4510      4511      4508      4507      4510      4512
      4508      4507      4510      4513      4509      4507      4510      4511
      4509      4507      4510      4512      4509      4507      4510      4513
      4514      4517      4520      4521      4514      4517      4520      4522
      4514      4517      4520      4523      4515      4514      4517      4518
      4515      4514      4517      4519      4515      4514      4517      4520
      4516      4514      4517      4518      4516      4514      4517      4519
      4516      4514      4517      4520      4517      4520      4523      4524
      4517      4520      4523      4525      4517      4520      4523      4526
      4518      4517      4520      4521      4518      4517      4520      4522
      4518      4517      4520      4523      4519      4517      4520      4521
      4519      4517      4520      4522      4519      4517      4520      4523
      4520      4523      4526      4527      4520      4523      4526      4528
      4520      4523      4526      4529      4521      4520      4523      4524
      4521      4520      4523      4525      4521      4520      4523      4526
      4522      4520      4523      4524      4522      4520      4523      4525
      4522      4520      4523      4526      4523      4526      4529      4530
      4523      4526      4529      4531      4523      4526      4529      4532
      4524      4523      4526      4527      4524      4523      4526      4528
      4524      4523      4526      4529      4525      4523      4526      4527
      4525      4523      4526      4528      4525      4523      4526      4529
      4526      4529      4532      4533      4526      4529      4532      4534
      4526      4529      4532      4535      4527      4526      4529      4530
      4527      4526      4529      4531      4527      4526      4529      4532
      4528      4526      4529      4530      4528      4526      4529      4531
      4528      4526      4529      4532      4529      4532      4535      4536
      4529      4532      4535      4537      4529      4532      4535      4538
      4530      4529      4532      4533      4530      4529      4532      4534
      4530      4529      4532      4535      4531      4529      4532      4533
      4531      4529      4532      4534      4531      4529      4532      4535
      4532      4535      4538      4539      4532      4535      4538      4540
      4532      4535      4538      4541      4533      4532      4535      4536
      4533      4532      4535      4537      4533      4532      4535      4538
      4534      4532      4535      4536      4534      4532      4535      4537
      4534      4532      4535      4538      4535      4538      4541      4542
      4535      4538      4541      4543      4535      4538      4541      4544
      4536      4535      4538      4539      4536      4535      4538      4540
      4536      4535      4538      4541      4537      4535      4538      4539
      4537      4535      4538      4540      4537      4535      4538      4541
      4538      4541      4544      4545      4538      4541      4544      4546
      4538      4541      4544      4547      4539      4538      4541      4542
      4539      4538      4541      4543      4539      4538      4541      4544
      4540      4538      4541      4542      4540      4538      4541      4543
      4540      4538      4541      4544      4541      4544      4547      4548
      4541      4544      4547      4549      4541      4544      4547      4550
      4542      4541      4544      4545      4542      4541      4544      4546
      4542      4541      4544      4547      4543      4541      4544      4545
      4543      4541      4544      4546      4543      4541      4544      4547
      4544      4547      4550      4551      4544      4547      4550      4552
      4544      4547      4550      4553      4545      4544      4547      4548
      4545      4544      4547      4549      4545      4544      4547      4550
      4546      4544      4547      4548      4546      4544      4547      4549
      4546      4544      4547      4550      4547      4550      4553      4554
      4547      4550      4553      4555      4547      4550      4553      4556
      4548      4547      4550      4551      4548      4547      4550      4552
      4548      4547      4550      4553      4549      4547      4550      4551
      4549      4547      4550      4552      4549      4547      4550      4553
      4551      4550      4553      4554      4551      4550      4553      4555
      4551      4550      4553      4556      4552      4550      4553      4554
      4552      4550      4553      4555      4552      4550      4553      4556
      4557      4558      4573      4574      4557      4558      4573      4575
      4557      4558      4573      4579      4558      4557      4561      4562
      4558      4557      4561      4563      4558      4557      4561      4564
      4558      4557      4565      4566      4558      4557      4565      4567
      4558      4557      4565      4568      4558      4557      4569      4570
      4558      4557      4569      4571      4558      4557      4569      4572
      4558      4573      4579      4576      4559      4558      4557      4561
      4559      4558      4557      4565      4559      4558      4557      4569
      4559      4558      4573      4574      4559      4558      4573      4575
      4559      4558      4573      4579      4560      4558      4557      4561
      4560      4558      4557      4565      4560      4558      4557      4569
      4560      4558      4573      4574      4560      4558      4573      4575
      4560      4558      4573      4579      4561      4557      4558      4573
      4561      4557      4565      4566      4561      4557      4565      4567
      4561      4557      4565      4568      4561      4557      4569      4570
      4561      4557      4569      4571      4561      4557      4569      4572
      4562      4561      4557      4565      4562      4561      4557      4569
      4563      4561      4557      4565      4563      4561      4557      4569
      4564      4561      4557      4565      4564      4561      4557      4569
      4565      4557      4558      4573      4565      4557      4569      4570
      4565      4557      4569      4571      4565      4557      4569      4572
      4566      4565      4557      4569      4567      4565      4557      4569
      4568      4565      4557      4569      4569      4557      4558      4573
      4573      4579      4576      4577      4573      4579      4576      4578
      4573      4579      4576      4580      4574      4573      4579      4576
      4575      4573      4579      4576      4576      4580      4581      4582
      4576      4580      4581      4583      4576      4580      4581      4584
      4577      4576      4580      4581      4578      4576      4580      4581
      4579      4576      4580      4581      4580      4581      4584      4585
      4580      4581      4584      4586      4580      4581      4584      4592
      4581      4584      4586      4587      4581      4584      4592      4593
      4581      4584      4592      4594      4581      4584      4592      4595
      4582      4581      4584      4585      4582      4581      4584      4586
      4582      4581      4584      4592      4583      4581      4584      4585
      4583      4581      4584      4586      4583      4581      4584      4592
      4584      4586      4587      4588      4584      4586      4587      4589
      4584      4592      4595      4596      4585      4584      4586      4587
      4585      4584      4592      4593      4585      4584      4592      4594
      4585      4584      4592      4595      4586      4584      4592      4593
      4586      4584      4592      4594      4586      4584      4592      4595
      4586      4587      4589      4590      4586      4587      4589      4591
      4586      4587      4589      4601      4587      4586      4584      4592
      4587      4589      4601      4602      4587      4589      4601      4603
      4587      4589      4601      4604      4588      4587      4589      4590
      4588      4587      4589      4591      4588      4587      4589      4601
      4589      4601      4604      4605      4589      4601      4604      4606
      4589      4601      4604      4607      4590      4589      4601      4602
      4590      4589      4601      4603      4590      4589      4601      4604
      4591      4589      4601      4602      4591      4589      4601      4603
      4591      4589      4601      4604      4592      4595      4596      4597
      4592      4595      4596      4598      4593      4592      4595      4596
      4594      4592      4595      4596      4595      4596      4598      4599
      4595      4596      4598      4600      4595      4596      4598      4648
      4596      4598      4648      4649      4596      4598      4648      4650
      4596      4598      4648      4651      4597      4596      4598      4599
      4597      4596      4598      4600      4597      4596      4598      4648
      4598      4648      4651      4652      4598      4648      4651      4653
      4598      4648      4651      4654      4599      4598      4648      4649
      4599      4598      4648      4650      4599      4598      4648      4651
      4600      4598      4648      4649      4600      4598      4648      4650
      4600      4598      4648      4651      4601      4604      4607      4608
      4601      4604      4607      4609      4601      4604      4607      4610
      4602      4601      4604      4605      4602      4601      4604      4606
      4602      4601      4604      4607      4603      4601      4604      4605
      4603      4601      4604      4606      4603      4601      4604      4607
      4604      4607      4610      4611      4604      4607      4610      4612
      4604      4607      4610      4613      4605      4604      4607      4608
      4605      4604      4607      4609      4605      4604      4607      4610
      4606      4604      4607      4608      4606      4604      4607      4609
      4606      4604      4607      4610      4607      4610      4613      4614
      4607      4610      4613      4615      4607      4610      4613      4616
      4608      4607      4610      4611      4608      4607      4610      4612
      4608      4607      4610      4613      4609      4607      4610      4611
      4609      4607      4610      4612      4609      4607      4610      4613
      4610      4613      4616      4617      4610      4613      4616      4618
      4610      4613      4616      4619      4611      4610      4613      4614
      4611      4610      4613      4615      4611      4610      4613      4616
      4612      4610      4613      4614      4612      4610      4613      4615
      4612      4610      4613      4616      4613      4616      4619      4620
      4613      4616      4619      4621      4614      4613      4616      4617
      4614      4613      4616      4618      4614      4613      4616      4619
      4615      4613      4616      4617      4615      4613      4616      4618
      4615      4613      4616      4619      4616      4619      4621      4622
      4616      4619      4621      4623      4617      4616      4619      4620
      4617      4616      4619      4621      4618      4616      4619      4620
      4618      4616      4619      4621      4619      4621      4623      4624
      4619      4621      4623      4625      4619      4621      4623      4626
      4620      4619      4621      4622      4620      4619      4621      4623
      4621      4623      4626      4627      4621      4623      4626      4628
      4621      4623      4626      4629      4622      4621      4623      4624
      4622      4621      4623      4625      4622      4621      4623      4626
      4623      4626      4629      4630      4623      4626      4629      4631
      4623      4626      4629      4632      4624      4623      4626      4627
      4624      4623      4626      4628      4624      4623      4626      4629
      4625      4623      4626      4627      4625      4623      4626      4628
      4625      4623      4626      4629      4626      4629      4632      4633
      4626      4629      4632      4634      4626      4629      4632      4635
      4627      4626      4629      4630      4627      4626      4629      4631
      4627      4626      4629      4632      4628      4626      4629      4630
      4628      4626      4629      4631      4628      4626      4629      4632
      4629      4632      4635      4636      4629      4632      4635      4637
      4629      4632      4635      4638      4630      4629      4632      4633
      4630      4629      4632      4634      4630      4629      4632      4635
      4631      4629      4632      4633      4631      4629      4632      4634
      4631      4629      4632      4635      4632      4635      4638      4639
      4632      4635      4638      4640      4632      4635      4638      4641
      4633      4632      4635      4636      4633      4632      4635      4637
      4633      4632      4635      4638      4634      4632      4635      4636
      4634      4632      4635      4637      4634      4632      4635      4638
      4635      4638      4641      4642      4635      4638      4641      4643
      4635      4638      4641      4644      4636      4635      4638      4639
      4636      4635      4638      4640      4636      4635      4638      4641
      4637      4635      4638      4639      4637      4635      4638      4640
      4637      4635      4638      4641      4638      4641      4644      4645
      4638      4641      4644      4646      4638      4641      4644      4647
      4639      4638      4641      4642      4639      4638      4641      4643
      4639      4638      4641      4644      4640      4638      4641      4642
      4640      4638      4641      4643      4640      4638      4641      4644
      4642      4641      4644      4645      4642      4641      4644      4646
      4642      4641      4644      4647      4643      4641      4644      4645
      4643      4641      4644      4646      4643      4641      4644      4647
      4648      4651      4654      4655      4648      4651      4654      4656
      4648      4651      4654      4657      4649      4648      4651      4652
      4649      4648      4651      4653      4649      4648      4651      4654
      4650      4648      4651      4652      4650      4648      4651      4653
      4650      4648      4651      4654      4651      4654      4657      4658
      4651      4654      4657      4659      4651      4654      4657      4660
      4652      4651      4654      4655      4652      4651      4654      4656
      4652      4651      4654      4657      4653      4651      4654      4655
      4653      4651      4654      4656      4653      4651      4654      4657
      4654      4657      4660      4661      4654      4657      4660      4662
      4654      4657      4660      4663      4655      4654      4657      4658
      4655      4654      4657      4659      4655      4654      4657      4660
      4656      4654      4657      4658      4656      4654      4657      4659
      4656      4654      4657      4660      4657      4660      4663      4664
      4657      4660      4663      4665      4657      4660      4663      4666
      4658      4657      4660      4661      4658      4657      4660      4662
      4658      4657      4660      4663      4659      4657      4660      4661
      4659      4657      4660      4662      4659      4657      4660      4663
      4660      4663      4666      4667      4660      4663      4666      4668
      4660      4663      4666      4669      4661      4660      4663      4664
      4661      4660      4663      4665      4661      4660      4663      4666
      4662      4660      4663      4664      4662      4660      4663      4665
      4662      4660      4663      4666      4663      4666      4669      4670
      4663      4666      4669      4671      4663      4666      4669      4672
      4664      4663      4666      4667      4664      4663      4666      4668
      4664      4663      4666      4669      4665      4663      4666      4667
      4665      4663      4666      4668      4665      4663      4666      4669
      4666      4669      4672      4673      4666      4669      4672      4674
      4666      4669      4672      4675      4667      4666      4669      4670
      4667      4666      4669      4671      4667      4666      4669      4672
      4668      4666      4669      4670      4668      4666      4669      4671
      4668      4666      4669      4672      4669      4672      4675      4676
      4669      4672      4675      4677      4669      4672      4675      4678
      4670      4669      4672      4673      4670      4669      4672      4674
      4670      4669      4672      4675      4671      4669      4672      4673
      4671      4669      4672      4674      4671      4669      4672      4675
      4672      4675      4678      4679      4672      4675      4678      4680
      4672      4675      4678      4681      4673      4672      4675      4676
      4673      4672      4675      4677      4673      4672      4675      4678
      4674      4672      4675      4676      4674      4672      4675      4677
      4674      4672      4675      4678      4675      4678      4681      4682
      4675      4678      4681      4683      4675      4678      4681      4684
      4676      4675      4678      4679      4676      4675      4678      4680
      4676      4675      4678      4681      4677      4675      4678      4679
      4677      4675      4678      4680      4677      4675      4678      4681
      4678      4681      4684      4685      4678      4681      4684      4686
      4678      4681      4684      4687      4679      4678      4681      4682
      4679      4678      4681      4683      4679      4678      4681      4684
      4680      4678      4681      4682      4680      4678      4681      4683
      4680      4678      4681      4684      4681      4684      4687      4688
      4681      4684      4687      4689      4681      4684      4687      4690
      4682      4681      4684      4685      4682      4681      4684      4686
      4682      4681      4684      4687      4683      4681      4684      4685
      4683      4681      4684      4686      4683      4681      4684      4687
      4685      4684      4687      4688      4685      4684      4687      4689
      4685      4684      4687      4690      4686      4684      4687      4688
      4686      4684      4687      4689      4686      4684      4687      4690
      4691      4692      4707      4708      4691      4692      4707      4709
      4691      4692      4707      4713      4692      4691      4695      4696
      4692      4691      4695      4697      4692      4691      4695      4698
      4692      4691      4699      4700      4692      4691      4699      4701
      4692      4691      4699      4702      4692      4691      4703      4704
      4692      4691      4703      4705      4692      4691      4703      4706
      4692      4707      4713      4710      4693      4692      4691      4695
      4693      4692      4691      4699      4693      4692      4691      4703
      4693      4692      4707      4708      4693      4692      4707      4709
      4693      4692      4707      4713      4694      4692      4691      4695
      4694      4692      4691      4699      4694      4692      4691      4703
      4694      4692      4707      4708      4694      4692      4707      4709
      4694      4692      4707      4713      4695      4691      4692      4707
      4695      4691      4699      4700      4695      4691      4699      4701
      4695      4691      4699      4702      4695      4691      4703      4704
      4695      4691      4703      4705      4695      4691      4703      4706
      4696      4695      4691      4699      4696      4695      4691      4703
      4697      4695      4691      4699      4697      4695      4691      4703
      4698      4695      4691      4699      4698      4695      4691      4703
      4699      4691      4692      4707      4699      4691      4703      4704
      4699      4691      4703      4705      4699      4691      4703      4706
      4700      4699      4691      4703      4701      4699      4691      4703
      4702      4699      4691      4703      4703      4691      4692      4707
      4707      4713      4710      4711      4707      4713      4710      4712
      4707      4713      4710      4714      4708      4707      4713      4710
      4709      4707      4713      4710      4710      4714      4715      4716
      4710      4714      4715      4717      4710      4714      4715      4718
      4711      4710      4714      4715      4712      4710      4714      4715
      4713      4710      4714      4715      4714      4715      4718      4719
      4714      4715      4718      4720      4714      4715      4718      4726
      4715      4718      4720      4721      4715      4718      4726      4727
      4715      4718      4726      4728      4715      4718      4726      4729
      4716      4715      4718      4719      4716      4715      4718      4720
      4716      4715      4718      4726      4717      4715      4718      4719
      4717      4715      4718      4720      4717      4715      4718      4726
      4718      4720      4721      4722      4718      4720      4721      4723
      4718      4726      4729      4730      4719      4718      4720      4721
      4719      4718      4726      4727      4719      4718      4726      4728
      4719      4718      4726      4729      4720      4718      4726      4727
      4720      4718      4726      4728      4720      4718      4726      4729
      4720      4721      4723      4724      4720      4721      4723      4725
      4720      4721      4723      4735      4721      4720      4718      4726
      4721      4723      4735      4736      4721      4723      4735      4737
      4721      4723      4735      4738      4722      4721      4723      4724
      4722      4721      4723      4725      4722      4721      4723      4735
      4723      4735      4738      4739      4723      4735      4738      4740
      4723      4735      4738      4741      4724      4723      4735      4736
      4724      4723      4735      4737      4724      4723      4735      4738
      4725      4723      4735      4736      4725      4723      4735      4737
      4725      4723      4735      4738      4726      4729      4730      4731
      4726      4729      4730      4732      4727      4726      4729      4730
      4728      4726      4729      4730      4729      4730      4732      4733
      4729      4730      4732      4734      4729      4730      4732      4782
      4730      4732      4782      4783      4730      4732      4782      4784
      4730      4732      4782      4785      4731      4730      4732      4733
      4731      4730      4732      4734      4731      4730      4732      4782
      4732      4782      4785      4786      4732      4782      4785      4787
      4732      4782      4785      4788      4733      4732      4782      4783
      4733      4732      4782      4784      4733      4732      4782      4785
      4734      4732      4782      4783      4734      4732      4782      4784
      4734      4732      4782      4785      4735      4738      4741      4742
      4735      4738      4741      4743      4735      4738      4741      4744
      4736      4735      4738      4739      4736      4735      4738      4740
      4736      4735      4738      4741      4737      4735      4738      4739
      4737      4735      4738      4740      4737      4735      4738      4741
      4738      4741      4744      4745      4738      4741      4744      4746
      4738      4741      4744      4747      4739      4738      4741      4742
      4739      4738      4741      4743      4739      4738      4741      4744
      4740      4738      4741      4742      4740      4738      4741      4743
      4740      4738      4741      4744      4741      4744      4747      4748
      4741      4744      4747      4749      4741      4744      4747      4750
      4742      4741      4744      4745      4742      4741      4744      4746
      4742      4741      4744      4747      4743      4741      4744      4745
      4743      4741      4744      4746      4743      4741      4744      4747
      4744      4747      4750      4751      4744      4747      4750      4752
      4744      4747      4750      4753      4745      4744      4747      4748
      4745      4744      4747      4749      4745      4744      4747      4750
      4746      4744      4747      4748      4746      4744      4747      4749
      4746      4744      4747      4750      4747      4750      4753      4754
      4747      4750      4753      4755      4748      4747      4750      4751
      4748      4747      4750      4752      4748      4747      4750      4753
      4749      4747      4750      4751      4749      4747      4750      4752
      4749      4747      4750      4753      4750      4753      4755      4756
      4750      4753      4755      4757      4751      4750      4753      4754
      4751      4750      4753      4755      4752      4750      4753      4754
      4752      4750      4753      4755      4753      4755      4757      4758
      4753      4755      4757      4759      4753      4755      4757      4760
      4754      4753      4755      4756      4754      4753      4755      4757
      4755      4757      4760      4761      4755      4757      4760      4762
      4755      4757      4760      4763      4756      4755      4757      4758
      4756      4755      4757      4759      4756      4755      4757      4760
      4757      4760      4763      4764      4757      4760      4763      4765
      4757      4760      4763      4766      4758      4757      4760      4761
      4758      4757      4760      4762      4758      4757      4760      4763
      4759      4757      4760      4761      4759      4757      4760      4762
      4759      4757      4760      4763      4760      4763      4766      4767
      4760      4763      4766      4768      4760      4763      4766      4769
      4761      4760      4763      4764      4761      4760      4763      4765
      4761      4760      4763      4766      4762      4760      4763      4764
      4762      4760      4763      4765      4762      4760      4763      4766
      4763      4766      4769      4770      4763      4766      4769      4771
      4763      4766      4769      4772      4764      4763      4766      4767
      4764      4763      4766      4768      4764      4763      4766      4769
      4765      4763      4766      4767      4765      4763      4766      4768
      4765      4763      4766      4769      4766      4769      4772      4773
      4766      4769      4772      4774      4766      4769      4772      4775
      4767      4766      4769      4770      4767      4766      4769      4771
      4767      4766      4769      4772      4768      4766      4769      4770
      4768      4766      4769      4771      4768      4766      4769      4772
      4769      4772      4775      4776      4769      4772      4775      4777
      4769      4772      4775      4778      4770      4769      4772      4773
      4770      4769      4772      4774      4770      4769      4772      4775
      4771      4769      4772      4773      4771      4769      4772      4774
      4771      4769      4772      4775      4772      4775      4778      4779
      4772      4775      4778      4780      4772      4775      4778      4781
      4773      4772      4775      4776      4773      4772      4775      4777
      4773      4772      4775      4778      4774      4772      4775      4776
      4774      4772      4775      4777      4774      4772      4775      4778
      4776      4775      4778      4779      4776      4775      4778      4780
      4776      4775      4778      4781      4777      4775      4778      4779
      4777      4775      4778      4780      4777      4775      4778      4781
      4782      4785      4788      4789      4782      4785      4788      4790
      4782      4785      4788      4791      4783      4782      4785      4786
      4783      4782      4785      4787      4783      4782      4785      4788
      4784      4782      4785      4786      4784      4782      4785      4787
      4784      4782      4785      4788      4785      4788      4791      4792
      4785      4788      4791      4793      4785      4788      4791      4794
      4786      4785      4788      4789      4786      4785      4788      4790
      4786      4785      4788      4791      4787      4785      4788      4789
      4787      4785      4788      4790      4787      4785      4788      4791
      4788      4791      4794      4795      4788      4791      4794      4796
      4788      4791      4794      4797      4789      4788      4791      4792
      4789      4788      4791      4793      4789      4788      4791      4794
      4790      4788      4791      4792      4790      4788      4791      4793
      4790      4788      4791      4794      4791      4794      4797      4798
      4791      4794      4797      4799      4791      4794      4797      4800
      4792      4791      4794      4795      4792      4791      4794      4796
      4792      4791      4794      4797      4793      4791      4794      4795
      4793      4791      4794      4796      4793      4791      4794      4797
      4794      4797      4800      4801      4794      4797      4800      4802
      4794      4797      4800      4803      4795      4794      4797      4798
      4795      4794      4797      4799      4795      4794      4797      4800
      4796      4794      4797      4798      4796      4794      4797      4799
      4796      4794      4797      4800      4797      4800      4803      4804
      4797      4800      4803      4805      4797      4800      4803      4806
      4798      4797      4800      4801      4798      4797      4800      4802
      4798      4797      4800      4803      4799      4797      4800      4801
      4799      4797      4800      4802      4799      4797      4800      4803
      4800      4803      4806      4807      4800      4803      4806      4808
      4800      4803      4806      4809      4801      4800      4803      4804
      4801      4800      4803      4805      4801      4800      4803      4806
      4802      4800      4803      4804      4802      4800      4803      4805
      4802      4800      4803      4806      4803      4806      4809      4810
      4803      4806      4809      4811      4803      4806      4809      4812
      4804      4803      4806      4807      4804      4803      4806      4808
      4804      4803      4806      4809      4805      4803      4806      4807
      4805      4803      4806      4808      4805      4803      4806      4809
      4806      4809      4812      4813      4806      4809      4812      4814
      4806      4809      4812      4815      4807      4806      4809      4810
      4807      4806      4809      4811      4807      4806      4809      4812
      4808      4806      4809      4810      4808      4806      4809      4811
      4808      4806      4809      4812      4809      4812      4815      4816
      4809      4812      4815      4817      4809      4812      4815      4818
      4810      4809      4812      4813      4810      4809      4812      4814
      4810      4809      4812      4815      4811      4809      4812      4813
      4811      4809      4812      4814      4811      4809      4812      4815
      4812      4815      4818      4819      4812      4815      4818      4820
      4812      4815      4818      4821      4813      4812      4815      4816
      4813      4812      4815      4817      4813      4812      4815      4818
      4814      4812      4815      4816      4814      4812      4815      4817
      4814      4812      4815      4818      4815      4818      4821      4822
      4815      4818      4821      4823      4815      4818      4821      4824
      4816      4815      4818      4819      4816      4815      4818      4820
      4816      4815      4818      4821      4817      4815      4818      4819
      4817      4815      4818      4820      4817      4815      4818      4821
      4819      4818      4821      4822      4819      4818      4821      4823
      4819      4818      4821      4824      4820      4818      4821      4822
      4820      4818      4821      4823      4820      4818      4821      4824
      4825      4826      4841      4842      4825      4826      4841      4843
      4825      4826      4841      4847      4826      4825      4829      4830
      4826      4825      4829      4831      4826      4825      4829      4832
      4826      4825      4833      4834      4826      4825      4833      4835
      4826      4825      4833      4836      4826      4825      4837      4838
      4826      4825      4837      4839      4826      4825      4837      4840
      4826      4841      4847      4844      4827      4826      4825      4829
      4827      4826      4825      4833      4827      4826      4825      4837
      4827      4826      4841      4842      4827      4826      4841      4843
      4827      4826      4841      4847      4828      4826      4825      4829
      4828      4826      4825      4833      4828      4826      4825      4837
      4828      4826      4841      4842      4828      4826      4841      4843
      4828      4826      4841      4847      4829      4825      4826      4841
      4829      4825      4833      4834      4829      4825      4833      4835
      4829      4825      4833      4836      4829      4825      4837      4838
      4829      4825      4837      4839      4829      4825      4837      4840
      4830      4829      4825      4833      4830      4829      4825      4837
      4831      4829      4825      4833      4831      4829      4825      4837
      4832      4829      4825      4833      4832      4829      4825      4837
      4833      4825      4826      4841      4833      4825      4837      4838
      4833      4825      4837      4839      4833      4825      4837      4840
      4834      4833      4825      4837      4835      4833      4825      4837
      4836      4833      4825      4837      4837      4825      4826      4841
      4841      4847      4844      4845      4841      4847      4844      4846
      4841      4847      4844      4848      4842      4841      4847      4844
      4843      4841      4847      4844      4844      4848      4849      4850
      4844      4848      4849      4851      4844      4848      4849      4852
      4845      4844      4848      4849      4846      4844      4848      4849
      4847      4844      4848      4849      4848      4849      4852      4853
      4848      4849      4852      4854      4848      4849      4852      4860
      4849      4852      4854      4855      4849      4852      4860      4861
      4849      4852      4860      4862      4849      4852      4860      4863
      4850      4849      4852      4853      4850      4849      4852      4854
      4850      4849      4852      4860      4851      4849      4852      4853
      4851      4849      4852      4854      4851      4849      4852      4860
      4852      4854      4855      4856      4852      4854      4855      4857
      4852      4860      4863      4864      4853      4852      4854      4855
      4853      4852      4860      4861      4853      4852      4860      4862
      4853      4852      4860      4863      4854      4852      4860      4861
      4854      4852      4860      4862      4854      4852      4860      4863
      4854      4855      4857      4858      4854      4855      4857      4859
      4854      4855      4857      4869      4855      4854      4852      4860
      4855      4857      4869      4870      4855      4857      4869      4871
      4855      4857      4869      4872      4856      4855      4857      4858
      4856      4855      4857      4859      4856      4855      4857      4869
      4857      4869      4872      4873      4857      4869      4872      4874
      4857      4869      4872      4875      4858      4857      4869      4870
      4858      4857      4869      4871      4858      4857      4869      4872
      4859      4857      4869      4870      4859      4857      4869      4871
      4859      4857      4869      4872      4860      4863      4864      4865
      4860      4863      4864      4866      4861      4860      4863      4864
      4862      4860      4863      4864      4863      4864      4866      4867
      4863      4864      4866      4868      4863      4864      4866      4916
      4864      4866      4916      4917      4864      4866      4916      4918
      4864      4866      4916      4919      4865      4864      4866      4867
      4865      4864      4866      4868      4865      4864      4866      4916
      4866      4916      4919      4920      4866      4916      4919      4921
      4866      4916      4919      4922      4867      4866      4916      4917
      4867      4866      4916      4918      4867      4866      4916      4919
      4868      4866      4916      4917      4868      4866      4916      4918
      4868      4866      4916      4919      4869      4872      4875      4876
      4869      4872      4875      4877      4869      4872      4875      4878
      4870      4869      4872      4873      4870      4869      4872      4874
      4870      4869      4872      4875      4871      4869      4872      4873
      4871      4869      4872      4874      4871      4869      4872      4875
      4872      4875      4878      4879      4872      4875      4878      4880
      4872      4875      4878      4881      4873      4872      4875      4876
      4873      4872      4875      4877      4873      4872      4875      4878
      4874      4872      4875      4876      4874      4872      4875      4877
      4874      4872      4875      4878      4875      4878      4881      4882
      4875      4878      4881      4883      4875      4878      4881      4884
      4876      4875      4878      4879      4876      4875      4878      4880
      4876      4875      4878      4881      4877      4875      4878      4879
      4877      4875      4878      4880      4877      4875      4878      4881
      4878      4881      4884      4885      4878      4881      4884      4886
      4878      4881      4884      4887      4879      4878      4881      4882
      4879      4878      4881      4883      4879      4878      4881      4884
      4880      4878      4881      4882      4880      4878      4881      4883
      4880      4878      4881      4884      4881      4884      4887      4888
      4881      4884      4887      4889      4882      4881      4884      4885
      4882      4881      4884      4886      4882      4881      4884      4887
      4883      4881      4884      4885      4883      4881      4884      4886
      4883      4881      4884      4887      4884      4887      4889      4890
      4884      4887      4889      4891      4885      4884      4887      4888
      4885      4884      4887      4889      4886      4884      4887      4888
      4886      4884      4887      4889      4887      4889      4891      4892
      4887      4889      4891      4893      4887      4889      4891      4894
      4888      4887      4889      4890      4888      4887      4889      4891
      4889      4891      4894      4895      4889      4891      4894      4896
      4889      4891      4894      4897      4890      4889      4891      4892
      4890      4889      4891      4893      4890      4889      4891      4894
      4891      4894      4897      4898      4891      4894      4897      4899
      4891      4894      4897      4900      4892      4891      4894      4895
      4892      4891      4894      4896      4892      4891      4894      4897
      4893      4891      4894      4895      4893      4891      4894      4896
      4893      4891      4894      4897      4894      4897      4900      4901
      4894      4897      4900      4902      4894      4897      4900      4903
      4895      4894      4897      4898      4895      4894      4897      4899
      4895      4894      4897      4900      4896      4894      4897      4898
      4896      4894      4897      4899      4896      4894      4897      4900
      4897      4900      4903      4904      4897      4900      4903      4905
      4897      4900      4903      4906      4898      4897      4900      4901
      4898      4897      4900      4902      4898      4897      4900      4903
      4899      4897      4900      4901      4899      4897      4900      4902
      4899      4897      4900      4903      4900      4903      4906      4907
      4900      4903      4906      4908      4900      4903      4906      4909
      4901      4900      4903      4904      4901      4900      4903      4905
      4901      4900      4903      4906      4902      4900      4903      4904
      4902      4900      4903      4905      4902      4900      4903      4906
      4903      4906      4909      4910      4903      4906      4909      4911
      4903      4906      4909      4912      4904      4903      4906      4907
      4904      4903      4906      4908      4904      4903      4906      4909
      4905      4903      4906      4907      4905      4903      4906      4908
      4905      4903      4906      4909      4906      4909      4912      4913
      4906      4909      4912      4914      4906      4909      4912      4915
      4907      4906      4909      4910      4907      4906      4909      4911
      4907      4906      4909      4912      4908      4906      4909      4910
      4908      4906      4909      4911      4908      4906      4909      4912
      4910      4909      4912      4913      4910      4909      4912      4914
      4910      4909      4912      4915      4911      4909      4912      4913
      4911      4909      4912      4914      4911      4909      4912      4915
      4916      4919      4922      4923      4916      4919      4922      4924
      4916      4919      4922      4925      4917      4916      4919      4920
      4917      4916      4919      4921      4917      4916      4919      4922
      4918      4916      4919      4920      4918      4916      4919      4921
      4918      4916      4919      4922      4919      4922      4925      4926
      4919      4922      4925      4927      4919      4922      4925      4928
      4920      4919      4922      4923      4920      4919      4922      4924
      4920      4919      4922      4925      4921      4919      4922      4923
      4921      4919      4922      4924      4921      4919      4922      4925
      4922      4925      4928      4929      4922      4925      4928      4930
      4922      4925      4928      4931      4923      4922      4925      4926
      4923      4922      4925      4927      4923      4922      4925      4928
      4924      4922      4925      4926      4924      4922      4925      4927
      4924      4922      4925      4928      4925      4928      4931      4932
      4925      4928      4931      4933      4925      4928      4931      4934
      4926      4925      4928      4929      4926      4925      4928      4930
      4926      4925      4928      4931      4927      4925      4928      4929
      4927      4925      4928      4930      4927      4925      4928      4931
      4928      4931      4934      4935      4928      4931      4934      4936
      4928      4931      4934      4937      4929      4928      4931      4932
      4929      4928      4931      4933      4929      4928      4931      4934
      4930      4928      4931      4932      4930      4928      4931      4933
      4930      4928      4931      4934      4931      4934      4937      4938
      4931      4934      4937      4939      4931      4934      4937      4940
      4932      4931      4934      4935      4932      4931      4934      4936
      4932      4931      4934      4937      4933      4931      4934      4935
      4933      4931      4934      4936      4933      4931      4934      4937
      4934      4937      4940      4941      4934      4937      4940      4942
      4934      4937      4940      4943      4935      4934      4937      4938
      4935      4934      4937      4939      4935      4934      4937      4940
      4936      4934      4937      4938      4936      4934      4937      4939
      4936      4934      4937      4940      4937      4940      4943      4944
      4937      4940      4943      4945      4937      4940      4943      4946
      4938      4937      4940      4941      4938      4937      4940      4942
      4938      4937      4940      4943      4939      4937      4940      4941
      4939      4937      4940      4942      4939      4937      4940      4943
      4940      4943      4946      4947      4940      4943      4946      4948
      4940      4943      4946      4949      4941      4940      4943      4944
      4941      4940      4943      4945      4941      4940      4943      4946
      4942      4940      4943      4944      4942      4940      4943      4945
      4942      4940      4943      4946      4943      4946      4949      4950
      4943      4946      4949      4951      4943      4946      4949      4952
      4944      4943      4946      4947      4944      4943      4946      4948
      4944      4943      4946      4949      4945      4943      4946      4947
      4945      4943      4946      4948      4945      4943      4946      4949
      4946      4949      4952      4953      4946      4949      4952      4954
      4946      4949      4952      4955      4947      4946      4949      4950
      4947      4946      4949      4951      4947      4946      4949      4952
      4948      4946      4949      4950      4948      4946      4949      4951
      4948      4946      4949      4952      4949      4952      4955      4956
      4949      4952      4955      4957      4949      4952      4955      4958
      4950      4949      4952      4953      4950      4949      4952      4954
      4950      4949      4952      4955      4951      4949      4952      4953
      4951      4949      4952      4954      4951      4949      4952      4955
      4953      4952      4955      4956      4953      4952      4955      4957
      4953      4952      4955      4958      4954      4952      4955      4956
      4954      4952      4955      4957      4954      4952      4955      4958
      4959      4960      4975      4976      4959      4960      4975      4977
      4959      4960      4975      4981      4960      4959      4963      4964
      4960      4959      4963      4965      4960      4959      4963      4966
      4960      4959      4967      4968      4960      4959      4967      4969
      4960      4959      4967      4970      4960      4959      4971      4972
      4960      4959      4971      4973      4960      4959      4971      4974
      4960      4975      4981      4978      4961      4960      4959      4963
      4961      4960      4959      4967      4961      4960      4959      4971
      4961      4960      4975      4976      4961      4960      4975      4977
      4961      4960      4975      4981      4962      4960      4959      4963
      4962      4960      4959      4967      4962      4960      4959      4971
      4962      4960      4975      4976      4962      4960      4975      4977
      4962      4960      4975      4981      4963      4959      4960      4975
      4963      4959      4967      4968      4963      4959      4967      4969
      4963      4959      4967      4970      4963      4959      4971      4972
      4963      4959      4971      4973      4963      4959      4971      4974
      4964      4963      4959      4967      4964      4963      4959      4971
      4965      4963      4959      4967      4965      4963      4959      4971
      4966      4963      4959      4967      4966      4963      4959      4971
      4967      4959      4960      4975      4967      4959      4971      4972
      4967      4959      4971      4973      4967      4959      4971      4974
      4968      4967      4959      4971      4969      4967      4959      4971
      4970      4967      4959      4971      4971      4959      4960      4975
      4975      4981      4978      4979      4975      4981      4978      4980
      4975      4981      4978      4982      4976      4975      4981      4978
      4977      4975      4981      4978      4978      4982      4983      4984
      4978      4982      4983      4985      4978      4982      4983      4986
      4979      4978      4982      4983      4980      4978      4982      4983
      4981      4978      4982      4983      4982      4983      4986      4987
      4982      4983      4986      4988      4982      4983      4986      4994
      4983      4986      4988      4989      4983      4986      4994      4995
      4983      4986      4994      4996      4983      4986      4994      4997
      4984      4983      4986      4987      4984      4983      4986      4988
      4984      4983      4986      4994      4985      4983      4986      4987
      4985      4983      4986      4988      4985      4983      4986      4994
      4986      4988      4989      4990      4986      4988      4989      4991
      4986      4994      4997      4998      4987      4986      4988      4989
      4987      4986      4994      4995      4987      4986      4994      4996
      4987      4986      4994      4997      4988      4986      4994      4995
      4988      4986      4994      4996      4988      4986      4994      4997
      4988      4989      4991      4992      4988      4989      4991      4993
      4988      4989      4991      5003      4989      4988      4986      4994
      4989      4991      5003      5004      4989      4991      5003      5005
      4989      4991      5003      5006      4990      4989      4991      4992
      4990      4989      4991      4993      4990      4989      4991      5003
      4991      5003      5006      5007      4991      5003      5006      5008
      4991      5003      5006      5009      4992      4991      5003      5004
      4992      4991      5003      5005      4992      4991      5003      5006
      4993      4991      5003      5004      4993      4991      5003      5005
      4993      4991      5003      5006      4994      4997      4998      4999
      4994      4997      4998      5000      4995      4994      4997      4998
      4996      4994      4997      4998      4997      4998      5000      5001
      4997      4998      5000      5002      4997      4998      5000      5050
      4998      5000      5050      5051      4998      5000      5050      5052
      4998      5000      5050      5053      4999      4998      5000      5001
      4999      4998      5000      5002      4999      4998      5000      5050
      5000      5050      5053      5054      5000      5050      5053      5055
      5000      5050      5053      5056      5001      5000      5050      5051
      5001      5000      5050      5052      5001      5000      5050      5053
      5002      5000      5050      5051      5002      5000      5050      5052
      5002      5000      5050      5053      5003      5006      5009      5010
      5003      5006      5009      5011      5003      5006      5009      5012
      5004      5003      5006      5007      5004      5003      5006      5008
      5004      5003      5006      5009      5005      5003      5006      5007
      5005      5003      5006      5008      5005      5003      5006      5009
      5006      5009      5012      5013      5006      5009      5012      5014
      5006      5009      5012      5015      5007      5006      5009      5010
      5007      5006      5009      5011      5007      5006      5009      5012
      5008      5006      5009      5010      5008      5006      5009      5011
      5008      5006      5009      5012      5009      5012      5015      5016
      5009      5012      5015      5017      5009      5012      5015      5018
      5010      5009      5012      5013      5010      5009      5012      5014
      5010      5009      5012      5015      5011      5009      5012      5013
      5011      5009      5012      5014      5011      5009      5012      5015
      5012      5015      5018      5019      5012      5015      5018      5020
      5012      5015      5018      5021      5013      5012      5015      5016
      5013      5012      5015      5017      5013      5012      5015      5018
      5014      5012      5015      5016      5014      5012      5015      5017
      5014      5012      5015      5018      5015      5018      5021      5022
      5015      5018      5021      5023      5016      5015      5018      5019
      5016      5015      5018      5020      5016      5015      5018      5021
      5017      5015      5018      5019      5017      5015      5018      5020
      5017      5015      5018      5021      5018      5021      5023      5024
      5018      5021      5023      5025      5019      5018      5021      5022
      5019      5018      5021      5023      5020      5018      5021      5022
      5020      5018      5021      5023      5021      5023      5025      5026
      5021      5023      5025      5027      5021      5023      5025      5028
      5022      5021      5023      5024      5022      5021      5023      5025
      5023      5025      5028      5029      5023      5025      5028      5030
      5023      5025      5028      5031      5024      5023      5025      5026
      5024      5023      5025      5027      5024      5023      5025      5028
      5025      5028      5031      5032      5025      5028      5031      5033
      5025      5028      5031      5034      5026      5025      5028      5029
      5026      5025      5028      5030      5026      5025      5028      5031
      5027      5025      5028      5029      5027      5025      5028      5030
      5027      5025      5028      5031      5028      5031      5034      5035
      5028      5031      5034      5036      5028      5031      5034      5037
      5029      5028      5031      5032      5029      5028      5031      5033
      5029      5028      5031      5034      5030      5028      5031      5032
      5030      5028      5031      5033      5030      5028      5031      5034
      5031      5034      5037      5038      5031      5034      5037      5039
      5031      5034      5037      5040      5032      5031      5034      5035
      5032      5031      5034      5036      5032      5031      5034      5037
      5033      5031      5034      5035      5033      5031      5034      5036
      5033      5031      5034      5037      5034      5037      5040      5041
      5034      5037      5040      5042      5034      5037      5040      5043
      5035      5034      5037      5038      5035      5034      5037      5039
      5035      5034      5037      5040      5036      5034      5037      5038
      5036      5034      5037      5039      5036      5034      5037      5040
      5037      5040      5043      5044      5037      5040      5043      5045
      5037      5040      5043      5046      5038      5037      5040      5041
      5038      5037      5040      5042      5038      5037      5040      5043
      5039      5037      5040      5041      5039      5037      5040      5042
      5039      5037      5040      5043      5040      5043      5046      5047
      5040      5043      5046      5048      5040      5043      5046      5049
      5041      5040      5043      5044      5041      5040      5043      5045
      5041      5040      5043      5046      5042      5040      5043      5044
      5042      5040      5043      5045      5042      5040      5043      5046
      5044      5043      5046      5047      5044      5043      5046      5048
      5044      5043      5046      5049      5045      5043      5046      5047
      5045      5043      5046      5048      5045      5043      5046      5049
      5050      5053      5056      5057      5050      5053      5056      5058
      5050      5053      5056      5059      5051      5050      5053      5054
      5051      5050      5053      5055      5051      5050      5053      5056
      5052      5050      5053      5054      5052      5050      5053      5055
      5052      5050      5053      5056      5053      5056      5059      5060
      5053      5056      5059      5061      5053      5056      5059      5062
      5054      5053      5056      5057      5054      5053      5056      5058
      5054      5053      5056      5059      5055      5053      5056      5057
      5055      5053      5056      5058      5055      5053      5056      5059
      5056      5059      5062      5063      5056      5059      5062      5064
      5056      5059      5062      5065      5057      5056      5059      5060
      5057      5056      5059      5061      5057      5056      5059      5062
      5058      5056      5059      5060      5058      5056      5059      5061
      5058      5056      5059      5062      5059      5062      5065      5066
      5059      5062      5065      5067      5059      5062      5065      5068
      5060      5059      5062      5063      5060      5059      5062      5064
      5060      5059      5062      5065      5061      5059      5062      5063
      5061      5059      5062      5064      5061      5059      5062      5065
      5062      5065      5068      5069      5062      5065      5068      5070
      5062      5065      5068      5071      5063      5062      5065      5066
      5063      5062      5065      5067      5063      5062      5065      5068
      5064      5062      5065      5066      5064      5062      5065      5067
      5064      5062      5065      5068      5065      5068      5071      5072
      5065      5068      5071      5073      5065      5068      5071      5074
      5066      5065      5068      5069      5066      5065      5068      5070
      5066      5065      5068      5071      5067      5065      5068      5069
      5067      5065      5068      5070      5067      5065      5068      5071
      5068      5071      5074      5075      5068      5071      5074      5076
      5068      5071      5074      5077      5069      5068      5071      5072
      5069      5068      5071      5073      5069      5068      5071      5074
      5070      5068      5071      5072      5070      5068      5071      5073
      5070      5068      5071      5074      5071      5074      5077      5078
      5071      5074      5077      5079      5071      5074      5077      5080
      5072      5071      5074      5075      5072      5071      5074      5076
      5072      5071      5074      5077      5073      5071      5074      5075
      5073      5071      5074      5076      5073      5071      5074      5077
      5074      5077      5080      5081      5074      5077      5080      5082
      5074      5077      5080      5083      5075      5074      5077      5078
      5075      5074      5077      5079      5075      5074      5077      5080
      5076      5074      5077      5078      5076      5074      5077      5079
      5076      5074      5077      5080      5077      5080      5083      5084
      5077      5080      5083      5085      5077      5080      5083      5086
      5078      5077      5080      5081      5078      5077      5080      5082
      5078      5077      5080      5083      5079      5077      5080      5081
      5079      5077      5080      5082      5079      5077      5080      5083
      5080      5083      5086      5087      5080      5083      5086      5088
      5080      5083      5086      5089      5081      5080      5083      5084
      5081      5080      5083      5085      5081      5080      5083      5086
      5082      5080      5083      5084      5082      5080      5083      5085
      5082      5080      5083      5086      5083      5086      5089      5090
      5083      5086      5089      5091      5083      5086      5089      5092
      5084      5083      5086      5087      5084      5083      5086      5088
      5084      5083      5086      5089      5085      5083      5086      5087
      5085      5083      5086      5088      5085      5083      5086      5089
      5087      5086      5089      5090      5087      5086      5089      5091
      5087      5086      5089      5092      5088      5086      5089      5090
      5088      5086      5089      5091      5088      5086      5089      5092
      5093      5094      5109      5110      5093      5094      5109      5111
      5093      5094      5109      5115      5094      5093      5097      5098
      5094      5093      5097      5099      5094      5093      5097      5100
      5094      5093      5101      5102      5094      5093      5101      5103
      5094      5093      5101      5104      5094      5093      5105      5106
      5094      5093      5105      5107      5094      5093      5105      5108
      5094      5109      5115      5112      5095      5094      5093      5097
      5095      5094      5093      5101      5095      5094      5093      5105
      5095      5094      5109      5110      5095      5094      5109      5111
      5095      5094      5109      5115      5096      5094      5093      5097
      5096      5094      5093      5101      5096      5094      5093      5105
      5096      5094      5109      5110      5096      5094      5109      5111
      5096      5094      5109      5115      5097      5093      5094      5109
      5097      5093      5101      5102      5097      5093      5101      5103
      5097      5093      5101      5104      5097      5093      5105      5106
      5097      5093      5105      5107      5097      5093      5105      5108
      5098      5097      5093      5101      5098      5097      5093      5105
      5099      5097      5093      5101      5099      5097      5093      5105
      5100      5097      5093      5101      5100      5097      5093      5105
      5101      5093      5094      5109      5101      5093      5105      5106
      5101      5093      5105      5107      5101      5093      5105      5108
      5102      5101      5093      5105      5103      5101      5093      5105
      5104      5101      5093      5105      5105      5093      5094      5109
      5109      5115      5112      5113      5109      5115      5112      5114
      5109      5115      5112      5116      5110      5109      5115      5112
      5111      5109      5115      5112      5112      5116      5117      5118
      5112      5116      5117      5119      5112      5116      5117      5120
      5113      5112      5116      5117      5114      5112      5116      5117
      5115      5112      5116      5117      5116      5117      5120      5121
      5116      5117      5120      5122      5116      5117      5120      5128
      5117      5120      5122      5123      5117      5120      5128      5129
      5117      5120      5128      5130      5117      5120      5128      5131
      5118      5117      5120      5121      5118      5117      5120      5122
      5118      5117      5120      5128      5119      5117      5120      5121
      5119      5117      5120      5122      5119      5117      5120      5128
      5120      5122      5123      5124      5120      5122      5123      5125
      5120      5128      5131      5132      5121      5120      5122      5123
      5121      5120      5128      5129      5121      5120      5128      5130
      5121      5120      5128      5131      5122      5120      5128      5129
      5122      5120      5128      5130      5122      5120      5128      5131
      5122      5123      5125      5126      5122      5123      5125      5127
      5122      5123      5125      5137      5123      5122      5120      5128
      5123      5125      5137      5138      5123      5125      5137      5139
      5123      5125      5137      5140      5124      5123      5125      5126
      5124      5123      5125      5127      5124      5123      5125      5137
      5125      5137      5140      5141      5125      5137      5140      5142
      5125      5137      5140      5143      5126      5125      5137      5138
      5126      5125      5137      5139      5126      5125      5137      5140
      5127      5125      5137      5138      5127      5125      5137      5139
      5127      5125      5137      5140      5128      5131      5132      5133
      5128      5131      5132      5134      5129      5128      5131      5132
      5130      5128      5131      5132      5131      5132      5134      5135
      5131      5132      5134      5136      5131      5132      5134      5184
      5132      5134      5184      5185      5132      5134      5184      5186
      5132      5134      5184      5187      5133      5132      5134      5135
      5133      5132      5134      5136      5133      5132      5134      5184
      5134      5184      5187      5188      5134      5184      5187      5189
      5134      5184      5187      5190      5135      5134      5184      5185
      5135      5134      5184      5186      5135      5134      5184      5187
      5136      5134      5184      5185      5136      5134      5184      5186
      5136      5134      5184      5187      5137      5140      5143      5144
      5137      5140      5143      5145      5137      5140      5143      5146
      5138      5137      5140      5141      5138      5137      5140      5142
      5138      5137      5140      5143      5139      5137      5140      5141
      5139      5137      5140      5142      5139      5137      5140      5143
      5140      5143      5146      5147      5140      5143      5146      5148
      5140      5143      5146      5149      5141      5140      5143      5144
      5141      5140      5143      5145      5141      5140      5143      5146
      5142      5140      5143      5144      5142      5140      5143      5145
      5142      5140      5143      5146      5143      5146      5149      5150
      5143      5146      5149      5151      5143      5146      5149      5152
      5144      5143      5146      5147      5144      5143      5146      5148
      5144      5143      5146      5149      5145      5143      5146      5147
      5145      5143      5146      5148      5145      5143      5146      5149
      5146      5149      5152      5153      5146      5149      5152      5154
      5146      5149      5152      5155      5147      5146      5149      5150
      5147      5146      5149      5151      5147      5146      5149      5152
      5148      5146      5149      5150      5148      5146      5149      5151
      5148      5146      5149      5152      5149      5152      5155      5156
      5149      5152      5155      5157      5150      5149      5152      5153
      5150      5149      5152      5154      5150      5149      5152      5155
      5151      5149      5152      5153      5151      5149      5152      5154
      5151      5149      5152      5155      5152      5155      5157      5158
      5152      5155      5157      5159      5153      5152      5155      5156
      5153      5152      5155      5157      5154      5152      5155      5156
      5154      5152      5155      5157      5155      5157      5159      5160
      5155      5157      5159      5161      5155      5157      5159      5162
      5156      5155      5157      5158      5156      5155      5157      5159
      5157      5159      5162      5163      5157      5159      5162      5164
      5157      5159      5162      5165      5158      5157      5159      5160
      5158      5157      5159      5161      5158      5157      5159      5162
      5159      5162      5165      5166      5159      5162      5165      5167
      5159      5162      5165      5168      5160      5159      5162      5163
      5160      5159      5162      5164      5160      5159      5162      5165
      5161      5159      5162      5163      5161      5159      5162      5164
      5161      5159      5162      5165      5162      5165      5168      5169
      5162      5165      5168      5170      5162      5165      5168      5171
      5163      5162      5165      5166      5163      5162      5165      5167
      5163      5162      5165      5168      5164      5162      5165      5166
      5164      5162      5165      5167      5164      5162      5165      5168
      5165      5168      5171      5172      5165      5168      5171      5173
      5165      5168      5171      5174      5166      5165      5168      5169
      5166      5165      5168      5170      5166      5165      5168      5171
      5167      5165      5168      5169      5167      5165      5168      5170
      5167      5165      5168      5171      5168      5171      5174      5175
      5168      5171      5174      5176      5168      5171      5174      5177
      5169      5168      5171      5172      5169      5168      5171      5173
      5169      5168      5171      5174      5170      5168      5171      5172
      5170      5168      5171      5173      5170      5168      5171      5174
      5171      5174      5177      5178      5171      5174      5177      5179
      5171      5174      5177      5180      5172      5171      5174      5175
      5172      5171      5174      5176      5172      5171      5174      5177
      5173      5171      5174      5175      5173      5171      5174      5176
      5173      5171      5174      5177      5174      5177      5180      5181
      5174      5177      5180      5182      5174      5177      5180      5183
      5175      5174      5177      5178      5175      5174      5177      5179
      5175      5174      5177      5180      5176      5174      5177      5178
      5176      5174      5177      5179      5176      5174      5177      5180
      5178      5177      5180      5181      5178      5177      5180      5182
      5178      5177      5180      5183      5179      5177      5180      5181
      5179      5177      5180      5182      5179      5177      5180      5183
      5184      5187      5190      5191      5184      5187      5190      5192
      5184      5187      5190      5193      5185      5184      5187      5188
      5185      5184      5187      5189      5185      5184      5187      5190
      5186      5184      5187      5188      5186      5184      5187      5189
      5186      5184      5187      5190      5187      5190      5193      5194
      5187      5190      5193      5195      5187      5190      5193      5196
      5188      5187      5190      5191      5188      5187      5190      5192
      5188      5187      5190      5193      5189      5187      5190      5191
      5189      5187      5190      5192      5189      5187      5190      5193
      5190      5193      5196      5197      5190      5193      5196      5198
      5190      5193      5196      5199      5191      5190      5193      5194
      5191      5190      5193      5195      5191      5190      5193      5196
      5192      5190      5193      5194      5192      5190      5193      5195
      5192      5190      5193      5196      5193      5196      5199      5200
      5193      5196      5199      5201      5193      5196      5199      5202
      5194      5193      5196      5197      5194      5193      5196      5198
      5194      5193      5196      5199      5195      5193      5196      5197
      5195      5193      5196      5198      5195      5193      5196      5199
      5196      5199      5202      5203      5196      5199      5202      5204
      5196      5199      5202      5205      5197      5196      5199      5200
      5197      5196      5199      5201      5197      5196      5199      5202
      5198      5196      5199      5200      5198      5196      5199      5201
      5198      5196      5199      5202      5199      5202      5205      5206
      5199      5202      5205      5207      5199      5202      5205      5208
      5200      5199      5202      5203      5200      5199      5202      5204
      5200      5199      5202      5205      5201      5199      5202      5203
      5201      5199      5202      5204      5201      5199      5202      5205
      5202      5205      5208      5209      5202      5205      5208      5210
      5202      5205      5208      5211      5203      5202      5205      5206
      5203      5202      5205      5207      5203      5202      5205      5208
      5204      5202      5205      5206      5204      5202      5205      5207
      5204      5202      5205      5208      5205      5208      5211      5212
      5205      5208      5211      5213      5205      5208      5211      5214
      5206      5205      5208      5209      5206      5205      5208      5210
      5206      5205      5208      5211      5207      5205      5208      5209
      5207      5205      5208      5210      5207      5205      5208      5211
      5208      5211      5214      5215      5208      5211      5214      5216
      5208      5211      5214      5217      5209      5208      5211      5212
      5209      5208      5211      5213      5209      5208      5211      5214
      5210      5208      5211      5212      5210      5208      5211      5213
      5210      5208      5211      5214      5211      5214      5217      5218
      5211      5214      5217      5219      5211      5214      5217      5220
      5212      5211      5214      5215      5212      5211      5214      5216
      5212      5211      5214      5217      5213      5211      5214      5215
      5213      5211      5214      5216      5213      5211      5214      5217
      5214      5217      5220      5221      5214      5217      5220      5222
      5214      5217      5220      5223      5215      5214      5217      5218
      5215      5214      5217      5219      5215      5214      5217      5220
      5216      5214      5217      5218      5216      5214      5217      5219
      5216      5214      5217      5220      5217      5220      5223      5224
      5217      5220      5223      5225      5217      5220      5223      5226
      5218      5217      5220      5221      5218      5217      5220      5222
      5218      5217      5220      5223      5219      5217      5220      5221
      5219      5217      5220      5222      5219      5217      5220      5223
      5221      5220      5223      5224      5221      5220      5223      5225
      5221      5220      5223      5226      5222      5220      5223      5224
      5222      5220      5223      5225      5222      5220      5223      5226
      5227      5228      5243      5244      5227      5228      5243      5245
      5227      5228      5243      5249      5228      5227      5231      5232
      5228      5227      5231      5233      5228      5227      5231      5234
      5228      5227      5235      5236      5228      5227      5235      5237
      5228      5227      5235      5238      5228      5227      5239      5240
      5228      5227      5239      5241      5228      5227      5239      5242
      5228      5243      5249      5246      5229      5228      5227      5231
      5229      5228      5227      5235      5229      5228      5227      5239
      5229      5228      5243      5244      5229      5228      5243      5245
      5229      5228      5243      5249      5230      5228      5227      5231
      5230      5228      5227      5235      5230      5228      5227      5239
      5230      5228      5243      5244      5230      5228      5243      5245
      5230      5228      5243      5249      5231      5227      5228      5243
      5231      5227      5235      5236      5231      5227      5235      5237
      5231      5227      5235      5238      5231      5227      5239      5240
      5231      5227      5239      5241      5231      5227      5239      5242
      5232      5231      5227      5235      5232      5231      5227      5239
      5233      5231      5227      5235      5233      5231      5227      5239
      5234      5231      5227      5235      5234      5231      5227      5239
      5235      5227      5228      5243      5235      5227      5239      5240
      5235      5227      5239      5241      5235      5227      5239      5242
      5236      5235      5227      5239      5237      5235      5227      5239
      5238      5235      5227      5239      5239      5227      5228      5243
      5243      5249      5246      5247      5243      5249      5246      5248
      5243      5249      5246      5250      5244      5243      5249      5246
      5245      5243      5249      5246      5246      5250      5251      5252
      5246      5250      5251      5253      5246      5250      5251      5254
      5247      5246      5250      5251      5248      5246      5250      5251
      5249      5246      5250      5251      5250      5251      5254      5255
      5250      5251      5254      5256      5250      5251      5254      5262
      5251      5254      5256      5257      5251      5254      5262      5263
      5251      5254      5262      5264      5251      5254      5262      5265
      5252      5251      5254      5255      5252      5251      5254      5256
      5252      5251      5254      5262      5253      5251      5254      5255
      5253      5251      5254      5256      5253      5251      5254      5262
      5254      5256      5257      5258      5254      5256      5257      5259
      5254      5262      5265      5266      5255      5254      5256      5257
      5255      5254      5262      5263      5255      5254      5262      5264
      5255      5254      5262      5265      5256      5254      5262      5263
      5256      5254      5262      5264      5256      5254      5262      5265
      5256      5257      5259      5260      5256      5257      5259      5261
      5256      5257      5259      5271      5257      5256      5254      5262
      5257      5259      5271      5272      5257      5259      5271      5273
      5257      5259      5271      5274      5258      5257      5259      5260
      5258      5257      5259      5261      5258      5257      5259      5271
      5259      5271      5274      5275      5259      5271      5274      5276
      5259      5271      5274      5277      5260      5259      5271      5272
      5260      5259      5271      5273      5260      5259      5271      5274
      5261      5259      5271      5272      5261      5259      5271      5273
      5261      5259      5271      5274      5262      5265      5266      5267
      5262      5265      5266      5268      5263      5262      5265      5266
      5264      5262      5265      5266      5265      5266      5268      5269
      5265      5266      5268      5270      5265      5266      5268      5318
      5266      5268      5318      5319      5266      5268      5318      5320
      5266      5268      5318      5321      5267      5266      5268      5269
      5267      5266      5268      5270      5267      5266      5268      5318
      5268      5318      5321      5322      5268      5318      5321      5323
      5268      5318      5321      5324      5269      5268      5318      5319
      5269      5268      5318      5320      5269      5268      5318      5321
      5270      5268      5318      5319      5270      5268      5318      5320
      5270      5268      5318      5321      5271      5274      5277      5278
      5271      5274      5277      5279      5271      5274      5277      5280
      5272      5271      5274      5275      5272      5271      5274      5276
      5272      5271      5274      5277      5273      5271      5274      5275
      5273      5271      5274      5276      5273      5271      5274      5277
      5274      5277      5280      5281      5274      5277      5280      5282
      5274      5277      5280      5283      5275      5274      5277      5278
      5275      5274      5277      5279      5275      5274      5277      5280
      5276      5274      5277      5278      5276      5274      5277      5279
      5276      5274      5277      5280      5277      5280      5283      5284
      5277      5280      5283      5285      5277      5280      5283      5286
      5278      5277      5280      5281      5278      5277      5280      5282
      5278      5277      5280      5283      5279      5277      5280      5281
      5279      5277      5280      5282      5279      5277      5280      5283
      5280      5283      5286      5287      5280      5283      5286      5288
      5280      5283      5286      5289      5281      5280      5283      5284
      5281      5280      5283      5285      5281      5280      5283      5286
      5282      5280      5283      5284      5282      5280      5283      5285
      5282      5280      5283      5286      5283      5286      5289      5290
      5283      5286      5289      5291      5284      5283      5286      5287
      5284      5283      5286      5288      5284      5283      5286      5289
      5285      5283      5286      5287      5285      5283      5286      5288
      5285      5283      5286      5289      5286      5289      5291      5292
      5286      5289      5291      5293      5287      5286      5289      5290
      5287      5286      5289      5291      5288      5286      5289      5290
      5288      5286      5289      5291      5289      5291      5293      5294
      5289      5291      5293      5295      5289      5291      5293      5296
      5290      5289      5291      5292      5290      5289      5291      5293
      5291      5293      5296      5297      5291      5293      5296      5298
      5291      5293      5296      5299      5292      5291      5293      5294
      5292      5291      5293      5295      5292      5291      5293      5296
      5293      5296      5299      5300      5293      5296      5299      5301
      5293      5296      5299      5302      5294      5293      5296      5297
      5294      5293      5296      5298      5294      5293      5296      5299
      5295      5293      5296      5297      5295      5293      5296      5298
      5295      5293      5296      5299      5296      5299      5302      5303
      5296      5299      5302      5304      5296      5299      5302      5305
      5297      5296      5299      5300      5297      5296      5299      5301
      5297      5296      5299      5302      5298      5296      5299      5300
      5298      5296      5299      5301      5298      5296      5299      5302
      5299      5302      5305      5306      5299      5302      5305      5307
      5299      5302      5305      5308      5300      5299      5302      5303
      5300      5299      5302      5304      5300      5299      5302      5305
      5301      5299      5302      5303      5301      5299      5302      5304
      5301      5299      5302      5305      5302      5305      5308      5309
      5302      5305      5308      5310      5302      5305      5308      5311
      5303      5302      5305      5306      5303      5302      5305      5307
      5303      5302      5305      5308      5304      5302      5305      5306
      5304      5302      5305      5307      5304      5302      5305      5308
      5305      5308      5311      5312      5305      5308      5311      5313
      5305      5308      5311      5314      5306      5305      5308      5309
      5306      5305      5308      5310      5306      5305      5308      5311
      5307      5305      5308      5309      5307      5305      5308      5310
      5307      5305      5308      5311      5308      5311      5314      5315
      5308      5311      5314      5316      5308      5311      5314      5317
      5309      5308      5311      5312      5309      5308      5311      5313
      5309      5308      5311      5314      5310      5308      5311      5312
      5310      5308      5311      5313      5310      5308      5311      5314
      5312      5311      5314      5315      5312      5311      5314      5316
      5312      5311      5314      5317      5313      5311      5314      5315
      5313      5311      5314      5316      5313      5311      5314      5317
      5318      5321      5324      5325      5318      5321      5324      5326
      5318      5321      5324      5327      5319      5318      5321      5322
      5319      5318      5321      5323      5319      5318      5321      5324
      5320      5318      5321      5322      5320      5318      5321      5323
      5320      5318      5321      5324      5321      5324      5327      5328
      5321      5324      5327      5329      5321      5324      5327      5330
      5322      5321      5324      5325      5322      5321      5324      5326
      5322      5321      5324      5327      5323      5321      5324      5325
      5323      5321      5324      5326      5323      5321      5324      5327
      5324      5327      5330      5331      5324      5327      5330      5332
      5324      5327      5330      5333      5325      5324      5327      5328
      5325      5324      5327      5329      5325      5324      5327      5330
      5326      5324      5327      5328      5326      5324      5327      5329
      5326      5324      5327      5330      5327      5330      5333      5334
      5327      5330      5333      5335      5327      5330      5333      5336
      5328      5327      5330      5331      5328      5327      5330      5332
      5328      5327      5330      5333      5329      5327      5330      5331
      5329      5327      5330      5332      5329      5327      5330      5333
      5330      5333      5336      5337      5330      5333      5336      5338
      5330      5333      5336      5339      5331      5330      5333      5334
      5331      5330      5333      5335      5331      5330      5333      5336
      5332      5330      5333      5334      5332      5330      5333      5335
      5332      5330      5333      5336      5333      5336      5339      5340
      5333      5336      5339      5341      5333      5336      5339      5342
      5334      5333      5336      5337      5334      5333      5336      5338
      5334      5333      5336      5339      5335      5333      5336      5337
      5335      5333      5336      5338      5335      5333      5336      5339
      5336      5339      5342      5343      5336      5339      5342      5344
      5336      5339      5342      5345      5337      5336      5339      5340
      5337      5336      5339      5341      5337      5336      5339      5342
      5338      5336      5339      5340      5338      5336      5339      5341
      5338      5336      5339      5342      5339      5342      5345      5346
      5339      5342      5345      5347      5339      5342      5345      5348
      5340      5339      5342      5343      5340      5339      5342      5344
      5340      5339      5342      5345      5341      5339      5342      5343
      5341      5339      5342      5344      5341      5339      5342      5345
      5342      5345      5348      5349      5342      5345      5348      5350
      5342      5345      5348      5351      5343      5342      5345      5346
      5343      5342      5345      5347      5343      5342      5345      5348
      5344      5342      5345      5346      5344      5342      5345      5347
      5344      5342      5345      5348      5345      5348      5351      5352
      5345      5348      5351      5353      5345      5348      5351      5354
      5346      5345      5348      5349      5346      5345      5348      5350
      5346      5345      5348      5351      5347      5345      5348      5349
      5347      5345      5348      5350      5347      5345      5348      5351
      5348      5351      5354      5355      5348      5351      5354      5356
      5348      5351      5354      5357      5349      5348      5351      5352
      5349      5348      5351      5353      5349      5348      5351      5354
      5350      5348      5351      5352      5350      5348      5351      5353
      5350      5348      5351      5354      5351      5354      5357      5358
      5351      5354      5357      5359      5351      5354      5357      5360
      5352      5351      5354      5355      5352      5351      5354      5356
      5352      5351      5354      5357      5353      5351      5354      5355
      5353      5351      5354      5356      5353      5351      5354      5357
      5355      5354      5357      5358      5355      5354      5357      5359
      5355      5354      5357      5360      5356      5354      5357      5358
      5356      5354      5357      5359      5356      5354      5357      5360
      5361      5362      5377      5378      5361      5362      5377      5379
      5361      5362      5377      5383      5362      5361      5365      5366
      5362      5361      5365      5367      5362      5361      5365      5368
      5362      5361      5369      5370      5362      5361      5369      5371
      5362      5361      5369      5372      5362      5361      5373      5374
      5362      5361      5373      5375      5362      5361      5373      5376
      5362      5377      5383      5380      5363      5362      5361      5365
      5363      5362      5361      5369      5363      5362      5361      5373
      5363      5362      5377      5378      5363      5362      5377      5379
      5363      5362      5377      5383      5364      5362      5361      5365
      5364      5362      5361      5369      5364      5362      5361      5373
      5364      5362      5377      5378      5364      5362      5377      5379
      5364      5362      5377      5383      5365      5361      5362      5377
      5365      5361      5369      5370      5365      5361      5369      5371
      5365      5361      5369      5372      5365      5361      5373      5374
      5365      5361      5373      5375      5365      5361      5373      5376
      5366      5365      5361      5369      5366      5365      5361      5373
      5367      5365      5361      5369      5367      5365      5361      5373
      5368      5365      5361      5369      5368      5365      5361      5373
      5369      5361      5362      5377      5369      5361      5373      5374
      5369      5361      5373      5375      5369      5361      5373      5376
      5370      5369      5361      5373      5371      5369      5361      5373
      5372      5369      5361      5373      5373      5361      5362      5377
      5377      5383      5380      5381      5377      5383      5380      5382
      5377      5383      5380      5384      5378      5377      5383      5380
      5379      5377      5383      5380      5380      5384      5385      5386
      5380      5384      5385      5387      5380      5384      5385      5388
      5381      5380      5384      5385      5382      5380      5384      5385
      5383      5380      5384      5385      5384      5385      5388      5389
      5384      5385      5388      5390      5384      5385      5388      5396
      5385      5388      5390      5391      5385      5388      5396      5397
      5385      5388      5396      5398      5385      5388      5396      5399
      5386      5385      5388      5389      5386      5385      5388      5390
      5386      5385      5388      5396      5387      5385      5388      5389
      5387      5385      5388      5390      5387      5385      5388      5396
      5388      5390      5391      5392      5388      5390      5391      5393
      5388      5396      5399      5400      5389      5388      5390      5391
      5389      5388      5396      5397      5389      5388      5396      5398
      5389      5388      5396      5399      5390      5388      5396      5397
      5390      5388      5396      5398      5390      5388      5396      5399
      5390      5391      5393      5394      5390      5391      5393      5395
      5390      5391      5393      5405      5391      5390      5388      5396
      5391      5393      5405      5406      5391      5393      5405      5407
      5391      5393      5405      5408      5392      5391      5393      5394
      5392      5391      5393      5395      5392      5391      5393      5405
      5393      5405      5408      5409      5393      5405      5408      5410
      5393      5405      5408      5411      5394      5393      5405      5406
      5394      5393      5405      5407      5394      5393      5405      5408
      5395      5393      5405      5406      5395      5393      5405      5407
      5395      5393      5405      5408      5396      5399      5400      5401
      5396      5399      5400      5402      5397      5396      5399      5400
      5398      5396      5399      5400      5399      5400      5402      5403
      5399      5400      5402      5404      5399      5400      5402      5452
      5400      5402      5452      5453      5400      5402      5452      5454
      5400      5402      5452      5455      5401      5400      5402      5403
      5401      5400      5402      5404      5401      5400      5402      5452
      5402      5452      5455      5456      5402      5452      5455      5457
      5402      5452      5455      5458      5403      5402      5452      5453
      5403      5402      5452      5454      5403      5402      5452      5455
      5404      5402      5452      5453      5404      5402      5452      5454
      5404      5402      5452      5455      5405      5408      5411      5412
      5405      5408      5411      5413      5405      5408      5411      5414
      5406      5405      5408      5409      5406      5405      5408      5410
      5406      5405      5408      5411      5407      5405      5408      5409
      5407      5405      5408      5410      5407      5405      5408      5411
      5408      5411      5414      5415      5408      5411      5414      5416
      5408      5411      5414      5417      5409      5408      5411      5412
      5409      5408      5411      5413      5409      5408      5411      5414
      5410      5408      5411      5412      5410      5408      5411      5413
      5410      5408      5411      5414      5411      5414      5417      5418
      5411      5414      5417      5419      5411      5414      5417      5420
      5412      5411      5414      5415      5412      5411      5414      5416
      5412      5411      5414      5417      5413      5411      5414      5415
      5413      5411      5414      5416      5413      5411      5414      5417
      5414      5417      5420      5421      5414      5417      5420      5422
      5414      5417      5420      5423      5415      5414      5417      5418
      5415      5414      5417      5419      5415      5414      5417      5420
      5416      5414      5417      5418      5416      5414      5417      5419
      5416      5414      5417      5420      5417      5420      5423      5424
      5417      5420      5423      5425      5418      5417      5420      5421
      5418      5417      5420      5422      5418      5417      5420      5423
      5419      5417      5420      5421      5419      5417      5420      5422
      5419      5417      5420      5423      5420      5423      5425      5426
      5420      5423      5425      5427      5421      5420      5423      5424
      5421      5420      5423      5425      5422      5420      5423      5424
      5422      5420      5423      5425      5423      5425      5427      5428
      5423      5425      5427      5429      5423      5425      5427      5430
      5424      5423      5425      5426      5424      5423      5425      5427
      5425      5427      5430      5431      5425      5427      5430      5432
      5425      5427      5430      5433      5426      5425      5427      5428
      5426      5425      5427      5429      5426      5425      5427      5430
      5427      5430      5433      5434      5427      5430      5433      5435
      5427      5430      5433      5436      5428      5427      5430      5431
      5428      5427      5430      5432      5428      5427      5430      5433
      5429      5427      5430      5431      5429      5427      5430      5432
      5429      5427      5430      5433      5430      5433      5436      5437
      5430      5433      5436      5438      5430      5433      5436      5439
      5431      5430      5433      5434      5431      5430      5433      5435
      5431      5430      5433      5436      5432      5430      5433      5434
      5432      5430      5433      5435      5432      5430      5433      5436
      5433      5436      5439      5440      5433      5436      5439      5441
      5433      5436      5439      5442      5434      5433      5436      5437
      5434      5433      5436      5438      5434      5433      5436      5439
      5435      5433      5436      5437      5435      5433      5436      5438
      5435      5433      5436      5439      5436      5439      5442      5443
      5436      5439      5442      5444      5436      5439      5442      5445
      5437      5436      5439      5440      5437      5436      5439      5441
      5437      5436      5439      5442      5438      5436      5439      5440
      5438      5436      5439      5441      5438      5436      5439      5442
      5439      5442      5445      5446      5439      5442      5445      5447
      5439      5442      5445      5448      5440      5439      5442      5443
      5440      5439      5442      5444      5440      5439      5442      5445
      5441      5439      5442      5443      5441      5439      5442      5444
      5441      5439      5442      5445      5442      5445      5448      5449
      5442      5445      5448      5450      5442      5445      5448      5451
      5443      5442      5445      5446      5443      5442      5445      5447
      5443      5442      5445      5448      5444      5442      5445      5446
      5444      5442      5445      5447      5444      5442      5445      5448
      5446      5445      5448      5449      5446      5445      5448      5450
      5446      5445      5448      5451      5447      5445      5448      5449
      5447      5445      5448      5450      5447      5445      5448      5451
      5452      5455      5458      5459      5452      5455      5458      5460
      5452      5455      5458      5461      5453      5452      5455      5456
      5453      5452      5455      5457      5453      5452      5455      5458
      5454      5452      5455      5456      5454      5452      5455      5457
      5454      5452      5455      5458      5455      5458      5461      5462
      5455      5458      5461      5463      5455      5458      5461      5464
      5456      5455      5458      5459      5456      5455      5458      5460
      5456      5455      5458      5461      5457      5455      5458      5459
      5457      5455      5458      5460      5457      5455      5458      5461
      5458      5461      5464      5465      5458      5461      5464      5466
      5458      5461      5464      5467      5459      5458      5461      5462
      5459      5458      5461      5463      5459      5458      5461      5464
      5460      5458      5461      5462      5460      5458      5461      5463
      5460      5458      5461      5464      5461      5464      5467      5468
      5461      5464      5467      5469      5461      5464      5467      5470
      5462      5461      5464      5465      5462      5461      5464      5466
      5462      5461      5464      5467      5463      5461      5464      5465
      5463      5461      5464      5466      5463      5461      5464      5467
      5464      5467      5470      5471      5464      5467      5470      5472
      5464      5467      5470      5473      5465      5464      5467      5468
      5465      5464      5467      5469      5465      5464      5467      5470
      5466      5464      5467      5468      5466      5464      5467      5469
      5466      5464      5467      5470      5467      5470      5473      5474
      5467      5470      5473      5475      5467      5470      5473      5476
      5468      5467      5470      5471      5468      5467      5470      5472
      5468      5467      5470      5473      5469      5467      5470      5471
      5469      5467      5470      5472      5469      5467      5470      5473
      5470      5473      5476      5477      5470      5473      5476      5478
      5470      5473      5476      5479      5471      5470      5473      5474
      5471      5470      5473      5475      5471      5470      5473      5476
      5472      5470      5473      5474      5472      5470      5473      5475
      5472      5470      5473      5476      5473      5476      5479      5480
      5473      5476      5479      5481      5473      5476      5479      5482
      5474      5473      5476      5477      5474      5473      5476      5478
      5474      5473      5476      5479      5475      5473      5476      5477
      5475      5473      5476      5478      5475      5473      5476      5479
      5476      5479      5482      5483      5476      5479      5482      5484
      5476      5479      5482      5485      5477      5476      5479      5480
      5477      5476      5479      5481      5477      5476      5479      5482
      5478      5476      5479      5480      5478      5476      5479      5481
      5478      5476      5479      5482      5479      5482      5485      5486
      5479      5482      5485      5487      5479      5482      5485      5488
      5480      5479      5482      5483      5480      5479      5482      5484
      5480      5479      5482      5485      5481      5479      5482      5483
      5481      5479      5482      5484      5481      5479      5482      5485
      5482      5485      5488      5489      5482      5485      5488      5490
      5482      5485      5488      5491      5483      5482      5485      5486
      5483      5482      5485      5487      5483      5482      5485      5488
      5484      5482      5485      5486      5484      5482      5485      5487
      5484      5482      5485      5488      5485      5488      5491      5492
      5485      5488      5491      5493      5485      5488      5491      5494
      5486      5485      5488      5489      5486      5485      5488      5490
      5486      5485      5488      5491      5487      5485      5488      5489
      5487      5485      5488      5490      5487      5485      5488      5491
      5489      5488      5491      5492      5489      5488      5491      5493
      5489      5488      5491      5494      5490      5488      5491      5492
      5490      5488      5491      5493      5490      5488      5491      5494
      5495      5496      5511      5512      5495      5496      5511      5513
      5495      5496      5511      5517      5496      5495      5499      5500
      5496      5495      5499      5501      5496      5495      5499      5502
      5496      5495      5503      5504      5496      5495      5503      5505
      5496      5495      5503      5506      5496      5495      5507      5508
      5496      5495      5507      5509      5496      5495      5507      5510
      5496      5511      5517      5514      5497      5496      5495      5499
      5497      5496      5495      5503      5497      5496      5495      5507
      5497      5496      5511      5512      5497      5496      5511      5513
      5497      5496      5511      5517      5498      5496      5495      5499
      5498      5496      5495      5503      5498      5496      5495      5507
      5498      5496      5511      5512      5498      5496      5511      5513
      5498      5496      5511      5517      5499      5495      5496      5511
      5499      5495      5503      5504      5499      5495      5503      5505
      5499      5495      5503      5506      5499      5495      5507      5508
      5499      5495      5507      5509      5499      5495      5507      5510
      5500      5499      5495      5503      5500      5499      5495      5507
      5501      5499      5495      5503      5501      5499      5495      5507
      5502      5499      5495      5503      5502      5499      5495      5507
      5503      5495      5496      5511      5503      5495      5507      5508
      5503      5495      5507      5509      5503      5495      5507      5510
      5504      5503      5495      5507      5505      5503      5495      5507
      5506      5503      5495      5507      5507      5495      5496      5511
      5511      5517      5514      5515      5511      5517      5514      5516
      5511      5517      5514      5518      5512      5511      5517      5514
      5513      5511      5517      5514      5514      5518      5519      5520
      5514      5518      5519      5521      5514      5518      5519      5522
      5515      5514      5518      5519      5516      5514      5518      5519
      5517      5514      5518      5519      5518      5519      5522      5523
      5518      5519      5522      5524      5518      5519      5522      5530
      5519      5522      5524      5525      5519      5522      5530      5531
      5519      5522      5530      5532      5519      5522      5530      5533
      5520      5519      5522      5523      5520      5519      5522      5524
      5520      5519      5522      5530      5521      5519      5522      5523
      5521      5519      5522      5524      5521      5519      5522      5530
      5522      5524      5525      5526      5522      5524      5525      5527
      5522      5530      5533      5534      5523      5522      5524      5525
      5523      5522      5530      5531      5523      5522      5530      5532
      5523      5522      5530      5533      5524      5522      5530      5531
      5524      5522      5530      5532      5524      5522      5530      5533
      5524      5525      5527      5528      5524      5525      5527      5529
      5524      5525      5527      5539      5525      5524      5522      5530
      5525      5527      5539      5540      5525      5527      5539      5541
      5525      5527      5539      5542      5526      5525      5527      5528
      5526      5525      5527      5529      5526      5525      5527      5539
      5527      5539      5542      5543      5527      5539      5542      5544
      5527      5539      5542      5545      5528      5527      5539      5540
      5528      5527      5539      5541      5528      5527      5539      5542
      5529      5527      5539      5540      5529      5527      5539      5541
      5529      5527      5539      5542      5530      5533      5534      5535
      5530      5533      5534      5536      5531      5530      5533      5534
      5532      5530      5533      5534      5533      5534      5536      5537
      5533      5534      5536      5538      5533      5534      5536      5586
      5534      5536      5586      5587      5534      5536      5586      5588
      5534      5536      5586      5589      5535      5534      5536      5537
      5535      5534      5536      5538      5535      5534      5536      5586
      5536      5586      5589      5590      5536      5586      5589      5591
      5536      5586      5589      5592      5537      5536      5586      5587
      5537      5536      5586      5588      5537      5536      5586      5589
      5538      5536      5586      5587      5538      5536      5586      5588
      5538      5536      5586      5589      5539      5542      5545      5546
      5539      5542      5545      5547      5539      5542      5545      5548
      5540      5539      5542      5543      5540      5539      5542      5544
      5540      5539      5542      5545      5541      5539      5542      5543
      5541      5539      5542      5544      5541      5539      5542      5545
      5542      5545      5548      5549      5542      5545      5548      5550
      5542      5545      5548      5551      5543      5542      5545      5546
      5543      5542      5545      5547      5543      5542      5545      5548
      5544      5542      5545      5546      5544      5542      5545      5547
      5544      5542      5545      5548      5545      5548      5551      5552
      5545      5548      5551      5553      5545      5548      5551      5554
      5546      5545      5548      5549      5546      5545      5548      5550
      5546      5545      5548      5551      5547      5545      5548      5549
      5547      5545      5548      5550      5547      5545      5548      5551
      5548      5551      5554      5555      5548      5551      5554      5556
      5548      5551      5554      5557      5549      5548      5551      5552
      5549      5548      5551      5553      5549      5548      5551      5554
      5550      5548      5551      5552      5550      5548      5551      5553
      5550      5548      5551      5554      5551      5554      5557      5558
      5551      5554      5557      5559      5552      5551      5554      5555
      5552      5551      5554      5556      5552      5551      5554      5557
      5553      5551      5554      5555      5553      5551      5554      5556
      5553      5551      5554      5557      5554      5557      5559      5560
      5554      5557      5559      5561      5555      5554      5557      5558
      5555      5554      5557      5559      5556      5554      5557      5558
      5556      5554      5557      5559      5557      5559      5561      5562
      5557      5559      5561      5563      5557      5559      5561      5564
      5558      5557      5559      5560      5558      5557      5559      5561
      5559      5561      5564      5565      5559      5561      5564      5566
      5559      5561      5564      5567      5560      5559      5561      5562
      5560      5559      5561      5563      5560      5559      5561      5564
      5561      5564      5567      5568      5561      5564      5567      5569
      5561      5564      5567      5570      5562      5561      5564      5565
      5562      5561      5564      5566      5562      5561      5564      5567
      5563      5561      5564      5565      5563      5561      5564      5566
      5563      5561      5564      5567      5564      5567      5570      5571
      5564      5567      5570      5572      5564      5567      5570      5573
      5565      5564      5567      5568      5565      5564      5567      5569
      5565      5564      5567      5570      5566      5564      5567      5568
      5566      5564      5567      5569      5566      5564      5567      5570
      5567      5570      5573      5574      5567      5570      5573      5575
      5567      5570      5573      5576      5568      5567      5570      5571
      5568      5567      5570      5572      5568      5567      5570      5573
      5569      5567      5570      5571      5569      5567      5570      5572
      5569      5567      5570      5573      5570      5573      5576      5577
      5570      5573      5576      5578      5570      5573      5576      5579
      5571      5570      5573      5574      5571      5570      5573      5575
      5571      5570      5573      5576      5572      5570      5573      5574
      5572      5570      5573      5575      5572      5570      5573      5576
      5573      5576      5579      5580      5573      5576      5579      5581
      5573      5576      5579      5582      5574      5573      5576      5577
      5574      5573      5576      5578      5574      5573      5576      5579
      5575      5573      5576      5577      5575      5573      5576      5578
      5575      5573      5576      5579      5576      5579      5582      5583
      5576      5579      5582      5584      5576      5579      5582      5585
      5577      5576      5579      5580      5577      5576      5579      5581
      5577      5576      5579      5582      5578      5576      5579      5580
      5578      5576      5579      5581      5578      5576      5579      5582
      5580      5579      5582      5583      5580      5579      5582      5584
      5580      5579      5582      5585      5581      5579      5582      5583
      5581      5579      5582      5584      5581      5579      5582      5585
      5586      5589      5592      5593      5586      5589      5592      5594
      5586      5589      5592      5595      5587      5586      5589      5590
      5587      5586      5589      5591      5587      5586      5589      5592
      5588      5586      5589      5590      5588      5586      5589      5591
      5588      5586      5589      5592      5589      5592      5595      5596
      5589      5592      5595      5597      5589      5592      5595      5598
      5590      5589      5592      5593      5590      5589      5592      5594
      5590      5589      5592      5595      5591      5589      5592      5593
      5591      5589      5592      5594      5591      5589      5592      5595
      5592      5595      5598      5599      5592      5595      5598      5600
      5592      5595      5598      5601      5593      5592      5595      5596
      5593      5592      5595      5597      5593      5592      5595      5598
      5594      5592      5595      5596      5594      5592      5595      5597
      5594      5592      5595      5598      5595      5598      5601      5602
      5595      5598      5601      5603      5595      5598      5601      5604
      5596      5595      5598      5599      5596      5595      5598      5600
      5596      5595      5598      5601      5597      5595      5598      5599
      5597      5595      5598      5600      5597      5595      5598      5601
      5598      5601      5604      5605      5598      5601      5604      5606
      5598      5601      5604      5607      5599      5598      5601      5602
      5599      5598      5601      5603      5599      5598      5601      5604
      5600      5598      5601      5602      5600      5598      5601      5603
      5600      5598      5601      5604      5601      5604      5607      5608
      5601      5604      5607      5609      5601      5604      5607      5610
      5602      5601      5604      5605      5602      5601      5604      5606
      5602      5601      5604      5607      5603      5601      5604      5605
      5603      5601      5604      5606      5603      5601      5604      5607
      5604      5607      5610      5611      5604      5607      5610      5612
      5604      5607      5610      5613      5605      5604      5607      5608
      5605      5604      5607      5609      5605      5604      5607      5610
      5606      5604      5607      5608      5606      5604      5607      5609
      5606      5604      5607      5610      5607      5610      5613      5614
      5607      5610      5613      5615      5607      5610      5613      5616
      5608      5607      5610      5611      5608      5607      5610      5612
      5608      5607      5610      5613      5609      5607      5610      5611
      5609      5607      5610      5612      5609      5607      5610      5613
      5610      5613      5616      5617      5610      5613      5616      5618
      5610      5613      5616      5619      5611      5610      5613      5614
      5611      5610      5613      5615      5611      5610      5613      5616
      5612      5610      5613      5614      5612      5610      5613      5615
      5612      5610      5613      5616      5613      5616      5619      5620
      5613      5616      5619      5621      5613      5616      5619      5622
      5614      5613      5616      5617      5614      5613      5616      5618
      5614      5613      5616      5619      5615      5613      5616      5617
      5615      5613      5616      5618      5615      5613      5616      5619
      5616      5619      5622      5623      5616      5619      5622      5624
      5616      5619      5622      5625      5617      5616      5619      5620
      5617      5616      5619      5621      5617      5616      5619      5622
      5618      5616      5619      5620      5618      5616      5619      5621
      5618      5616      5619      5622      5619      5622      5625      5626
      5619      5622      5625      5627      5619      5622      5625      5628
      5620      5619      5622      5623      5620      5619      5622      5624
      5620      5619      5622      5625      5621      5619      5622      5623
      5621      5619      5622      5624      5621      5619      5622      5625
      5623      5622      5625      5626      5623      5622      5625      5627
      5623      5622      5625      5628      5624      5622      5625      5626
      5624      5622      5625      5627      5624      5622      5625      5628
      5629      5630      5645      5646      5629      5630      5645      5647
      5629      5630      5645      5651      5630      5629      5633      5634
      5630      5629      5633      5635      5630      5629      5633      5636
      5630      5629      5637      5638      5630      5629      5637      5639
      5630      5629      5637      5640      5630      5629      5641      5642
      5630      5629      5641      5643      5630      5629      5641      5644
      5630      5645      5651      5648      5631      5630      5629      5633
      5631      5630      5629      5637      5631      5630      5629      5641
      5631      5630      5645      5646      5631      5630      5645      5647
      5631      5630      5645      5651      5632      5630      5629      5633
      5632      5630      5629      5637      5632      5630      5629      5641
      5632      5630      5645      5646      5632      5630      5645      5647
      5632      5630      5645      5651      5633      5629      5630      5645
      5633      5629      5637      5638      5633      5629      5637      5639
      5633      5629      5637      5640      5633      5629      5641      5642
      5633      5629      5641      5643      5633      5629      5641      5644
      5634      5633      5629      5637      5634      5633      5629      5641
      5635      5633      5629      5637      5635      5633      5629      5641
      5636      5633      5629      5637      5636      5633      5629      5641
      5637      5629      5630      5645      5637      5629      5641      5642
      5637      5629      5641      5643      5637      5629      5641      5644
      5638      5637      5629      5641      5639      5637      5629      5641
      5640      5637      5629      5641      5641      5629      5630      5645
      5645      5651      5648      5649      5645      5651      5648      5650
      5645      5651      5648      5652      5646      5645      5651      5648
      5647      5645      5651      5648      5648      5652      5653      5654
      5648      5652      5653      5655      5648      5652      5653      5656
      5649      5648      5652      5653      5650      5648      5652      5653
      5651      5648      5652      5653      5652      5653      5656      5657
      5652      5653      5656      5658      5652      5653      5656      5664
      5653      5656      5658      5659      5653      5656      5664      5665
      5653      5656      5664      5666      5653      5656      5664      5667
      5654      5653      5656      5657      5654      5653      5656      5658
      5654      5653      5656      5664      5655      5653      5656      5657
      5655      5653      5656      5658      5655      5653      5656      5664
      5656      5658      5659      5660      5656      5658      5659      5661
      5656      5664      5667      5668      5657      5656      5658      5659
      5657      5656      5664      5665      5657      5656      5664      5666
      5657      5656      5664      5667      5658      5656      5664      5665
      5658      5656      5664      5666      5658      5656      5664      5667
      5658      5659      5661      5662      5658      5659      5661      5663
      5658      5659      5661      5673      5659      5658      5656      5664
      5659      5661      5673      5674      5659      5661      5673      5675
      5659      5661      5673      5676      5660      5659      5661      5662
      5660      5659      5661      5663      5660      5659      5661      5673
      5661      5673      5676      5677      5661      5673      5676      5678
      5661      5673      5676      5679      5662      5661      5673      5674
      5662      5661      5673      5675      5662      5661      5673      5676
      5663      5661      5673      5674      5663      5661      5673      5675
      5663      5661      5673      5676      5664      5667      5668      5669
      5664      5667      5668      5670      5665      5664      5667      5668
      5666      5664      5667      5668      5667      5668      5670      5671
      5667      5668      5670      5672      5667      5668      5670      5720
      5668      5670      5720      5721      5668      5670      5720      5722
      5668      5670      5720      5723      5669      5668      5670      5671
      5669      5668      5670      5672      5669      5668      5670      5720
      5670      5720      5723      5724      5670      5720      5723      5725
      5670      5720      5723      5726      5671      5670      5720      5721
      5671      5670      5720      5722      5671      5670      5720      5723
      5672      5670      5720      5721      5672      5670      5720      5722
      5672      5670      5720      5723      5673      5676      5679      5680
      5673      5676      5679      5681      5673      5676      5679      5682
      5674      5673      5676      5677      5674      5673      5676      5678
      5674      5673      5676      5679      5675      5673      5676      5677
      5675      5673      5676      5678      5675      5673      5676      5679
      5676      5679      5682      5683      5676      5679      5682      5684
      5676      5679      5682      5685      5677      5676      5679      5680
      5677      5676      5679      5681      5677      5676      5679      5682
      5678      5676      5679      5680      5678      5676      5679      5681
      5678      5676      5679      5682      5679      5682      5685      5686
      5679      5682      5685      5687      5679      5682      5685      5688
      5680      5679      5682      5683      5680      5679      5682      5684
      5680      5679      5682      5685      5681      5679      5682      5683
      5681      5679      5682      5684      5681      5679      5682      5685
      5682      5685      5688      5689      5682      5685      5688      5690
      5682      5685      5688      5691      5683      5682      5685      5686
      5683      5682      5685      5687      5683      5682      5685      5688
      5684      5682      5685      5686      5684      5682      5685      5687
      5684      5682      5685      5688      5685      5688      5691      5692
      5685      5688      5691      5693      5686      5685      5688      5689
      5686      5685      5688      5690      5686      5685      5688      5691
      5687      5685      5688      5689      5687      5685      5688      5690
      5687      5685      5688      5691      5688      5691      5693      5694
      5688      5691      5693      5695      5689      5688      5691      5692
      5689      5688      5691      5693      5690      5688      5691      5692
      5690      5688      5691      5693      5691      5693      5695      5696
      5691      5693      5695      5697      5691      5693      5695      5698
      5692      5691      5693      5694      5692      5691      5693      5695
      5693      5695      5698      5699      5693      5695      5698      5700
      5693      5695      5698      5701      5694      5693      5695      5696
      5694      5693      5695      5697      5694      5693      5695      5698
      5695      5698      5701      5702      5695      5698      5701      5703
      5695      5698      5701      5704      5696      5695      5698      5699
      5696      5695      5698      5700      5696      5695      5698      5701
      5697      5695      5698      5699      5697      5695      5698      5700
      5697      5695      5698      5701      5698      5701      5704      5705
      5698      5701      5704      5706      5698      5701      5704      5707
      5699      5698      5701      5702      5699      5698      5701      5703
      5699      5698      5701      5704      5700      5698      5701      5702
      5700      5698      5701      5703      5700      5698      5701      5704
      5701      5704      5707      5708      5701      5704      5707      5709
      5701      5704      5707      5710      5702      5701      5704      5705
      5702      5701      5704      5706      5702      5701      5704      5707
      5703      5701      5704      5705      5703      5701      5704      5706
      5703      5701      5704      5707      5704      5707      5710      5711
      5704      5707      5710      5712      5704      5707      5710      5713
      5705      5704      5707      5708      5705      5704      5707      5709
      5705      5704      5707      5710      5706      5704      5707      5708
      5706      5704      5707      5709      5706      5704      5707      5710
      5707      5710      5713      5714      5707      5710      5713      5715
      5707      5710      5713      5716      5708      5707      5710      5711
      5708      5707      5710      5712      5708      5707      5710      5713
      5709      5707      5710      5711      5709      5707      5710      5712
      5709      5707      5710      5713      5710      5713      5716      5717
      5710      5713      5716      5718      5710      5713      5716      5719
      5711      5710      5713      5714      5711      5710      5713      5715
      5711      5710      5713      5716      5712      5710      5713      5714
      5712      5710      5713      5715      5712      5710      5713      5716
      5714      5713      5716      5717      5714      5713      5716      5718
      5714      5713      5716      5719      5715      5713      5716      5717
      5715      5713      5716      5718      5715      5713      5716      5719
      5720      5723      5726      5727      5720      5723      5726      5728
      5720      5723      5726      5729      5721      5720      5723      5724
      5721      5720      5723      5725      5721      5720      5723      5726
      5722      5720      5723      5724      5722      5720      5723      5725
      5722      5720      5723      5726      5723      5726      5729      5730
      5723      5726      5729      5731      5723      5726      5729      5732
      5724      5723      5726      5727      5724      5723      5726      5728
      5724      5723      5726      5729      5725      5723      5726      5727
      5725      5723      5726      5728      5725      5723      5726      5729
      5726      5729      5732      5733      5726      5729      5732      5734
      5726      5729      5732      5735      5727      5726      5729      5730
      5727      5726      5729      5731      5727      5726      5729      5732
      5728      5726      5729      5730      5728      5726      5729      5731
      5728      5726      5729      5732      5729      5732      5735      5736
      5729      5732      5735      5737      5729      5732      5735      5738
      5730      5729      5732      5733      5730      5729      5732      5734
      5730      5729      5732      5735      5731      5729      5732      5733
      5731      5729      5732      5734      5731      5729      5732      5735
      5732      5735      5738      5739      5732      5735      5738      5740
      5732      5735      5738      5741      5733      5732      5735      5736
      5733      5732      5735      5737      5733      5732      5735      5738
      5734      5732      5735      5736      5734      5732      5735      5737
      5734      5732      5735      5738      5735      5738      5741      5742
      5735      5738      5741      5743      5735      5738      5741      5744
      5736      5735      5738      5739      5736      5735      5738      5740
      5736      5735      5738      5741      5737      5735      5738      5739
      5737      5735      5738      5740      5737      5735      5738      5741
      5738      5741      5744      5745      5738      5741      5744      5746
      5738      5741      5744      5747      5739      5738      5741      5742
      5739      5738      5741      5743      5739      5738      5741      5744
      5740      5738      5741      5742      5740      5738      5741      5743
      5740      5738      5741      5744      5741      5744      5747      5748
      5741      5744      5747      5749      5741      5744      5747      5750
      5742      5741      5744      5745      5742      5741      5744      5746
      5742      5741      5744      5747      5743      5741      5744      5745
      5743      5741      5744      5746      5743      5741      5744      5747
      5744      5747      5750      5751      5744      5747      5750      5752
      5744      5747      5750      5753      5745      5744      5747      5748
      5745      5744      5747      5749      5745      5744      5747      5750
      5746      5744      5747      5748      5746      5744      5747      5749
      5746      5744      5747      5750      5747      5750      5753      5754
      5747      5750      5753      5755      5747      5750      5753      5756
      5748      5747      5750      5751      5748      5747      5750      5752
      5748      5747      5750      5753      5749      5747      5750      5751
      5749      5747      5750      5752      5749      5747      5750      5753
      5750      5753      5756      5757      5750      5753      5756      5758
      5750      5753      5756      5759      5751      5750      5753      5754
      5751      5750      5753      5755      5751      5750      5753      5756
      5752      5750      5753      5754      5752      5750      5753      5755
      5752      5750      5753      5756      5753      5756      5759      5760
      5753      5756      5759      5761      5753      5756      5759      5762
      5754      5753      5756      5757      5754      5753      5756      5758
      5754      5753      5756      5759      5755      5753      5756      5757
      5755      5753      5756      5758      5755      5753      5756      5759
      5757      5756      5759      5760      5757      5756      5759      5761
      5757      5756      5759      5762      5758      5756      5759      5760
      5758      5756      5759      5761      5758      5756      5759      5762
      5763      5764      5779      5780      5763      5764      5779      5781
      5763      5764      5779      5785      5764      5763      5767      5768
      5764      5763      5767      5769      5764      5763      5767      5770
      5764      5763      5771      5772      5764      5763      5771      5773
      5764      5763      5771      5774      5764      5763      5775      5776
      5764      5763      5775      5777      5764      5763      5775      5778
      5764      5779      5785      5782      5765      5764      5763      5767
      5765      5764      5763      5771      5765      5764      5763      5775
      5765      5764      5779      5780      5765      5764      5779      5781
      5765      5764      5779      5785      5766      5764      5763      5767
      5766      5764      5763      5771      5766      5764      5763      5775
      5766      5764      5779      5780      5766      5764      5779      5781
      5766      5764      5779      5785      5767      5763      5764      5779
      5767      5763      5771      5772      5767      5763      5771      5773
      5767      5763      5771      5774      5767      5763      5775      5776
      5767      5763      5775      5777      5767      5763      5775      5778
      5768      5767      5763      5771      5768      5767      5763      5775
      5769      5767      5763      5771      5769      5767      5763      5775
      5770      5767      5763      5771      5770      5767      5763      5775
      5771      5763      5764      5779      5771      5763      5775      5776
      5771      5763      5775      5777      5771      5763      5775      5778
      5772      5771      5763      5775      5773      5771      5763      5775
      5774      5771      5763      5775      5775      5763      5764      5779
      5779      5785      5782      5783      5779      5785      5782      5784
      5779      5785      5782      5786      5780      5779      5785      5782
      5781      5779      5785      5782      5782      5786      5787      5788
      5782      5786      5787      5789      5782      5786      5787      5790
      5783      5782      5786      5787      5784      5782      5786      5787
      5785      5782      5786      5787      5786      5787      5790      5791
      5786      5787      5790      5792      5786      5787      5790      5798
      5787      5790      5792      5793      5787      5790      5798      5799
      5787      5790      5798      5800      5787      5790      5798      5801
      5788      5787      5790      5791      5788      5787      5790      5792
      5788      5787      5790      5798      5789      5787      5790      5791
      5789      5787      5790      5792      5789      5787      5790      5798
      5790      5792      5793      5794      5790      5792      5793      5795
      5790      5798      5801      5802      5791      5790      5792      5793
      5791      5790      5798      5799      5791      5790      5798      5800
      5791      5790      5798      5801      5792      5790      5798      5799
      5792      5790      5798      5800      5792      5790      5798      5801
      5792      5793      5795      5796      5792      5793      5795      5797
      5792      5793      5795      5807      5793      5792      5790      5798
      5793      5795      5807      5808      5793      5795      5807      5809
      5793      5795      5807      5810      5794      5793      5795      5796
      5794      5793      5795      5797      5794      5793      5795      5807
      5795      5807      5810      5811      5795      5807      5810      5812
      5795      5807      5810      5813      5796      5795      5807      5808
      5796      5795      5807      5809      5796      5795      5807      5810
      5797      5795      5807      5808      5797      5795      5807      5809
      5797      5795      5807      5810      5798      5801      5802      5803
      5798      5801      5802      5804      5799      5798      5801      5802
      5800      5798      5801      5802      5801      5802      5804      5805
      5801      5802      5804      5806      5801      5802      5804      5854
      5802      5804      5854      5855      5802      5804      5854      5856
      5802      5804      5854      5857      5803      5802      5804      5805
      5803      5802      5804      5806      5803      5802      5804      5854
      5804      5854      5857      5858      5804      5854      5857      5859
      5804      5854      5857      5860      5805      5804      5854      5855
      5805      5804      5854      5856      5805      5804      5854      5857
      5806      5804      5854      5855      5806      5804      5854      5856
      5806      5804      5854      5857      5807      5810      5813      5814
      5807      5810      5813      5815      5807      5810      5813      5816
      5808      5807      5810      5811      5808      5807      5810      5812
      5808      5807      5810      5813      5809      5807      5810      5811
      5809      5807      5810      5812      5809      5807      5810      5813
      5810      5813      5816      5817      5810      5813      5816      5818
      5810      5813      5816      5819      5811      5810      5813      5814
      5811      5810      5813      5815      5811      5810      5813      5816
      5812      5810      5813      5814      5812      5810      5813      5815
      5812      5810      5813      5816      5813      5816      5819      5820
      5813      5816      5819      5821      5813      5816      5819      5822
      5814      5813      5816      5817      5814      5813      5816      5818
      5814      5813      5816      5819      5815      5813      5816      5817
      5815      5813      5816      5818      5815      5813      5816      5819
      5816      5819      5822      5823      5816      5819      5822      5824
      5816      5819      5822      5825      5817      5816      5819      5820
      5817      5816      5819      5821      5817      5816      5819      5822
      5818      5816      5819      5820      5818      5816      5819      5821
      5818      5816      5819      5822      5819      5822      5825      5826
      5819      5822      5825      5827      5820      5819      5822      5823
      5820      5819      5822      5824      5820      5819      5822      5825
      5821      5819      5822      5823      5821      5819      5822      5824
      5821      5819      5822      5825      5822      5825      5827      5828
      5822      5825      5827      5829      5823      5822      5825      5826
      5823      5822      5825      5827      5824      5822      5825      5826
      5824      5822      5825      5827      5825      5827      5829      5830
      5825      5827      5829      5831      5825      5827      5829      5832
      5826      5825      5827      5828      5826      5825      5827      5829
      5827      5829      5832      5833      5827      5829      5832      5834
      5827      5829      5832      5835      5828      5827      5829      5830
      5828      5827      5829      5831      5828      5827      5829      5832
      5829      5832      5835      5836      5829      5832      5835      5837
      5829      5832      5835      5838      5830      5829      5832      5833
      5830      5829      5832      5834      5830      5829      5832      5835
      5831      5829      5832      5833      5831      5829      5832      5834
      5831      5829      5832      5835      5832      5835      5838      5839
      5832      5835      5838      5840      5832      5835      5838      5841
      5833      5832      5835      5836      5833      5832      5835      5837
      5833      5832      5835      5838      5834      5832      5835      5836
      5834      5832      5835      5837      5834      5832      5835      5838
      5835      5838      5841      5842      5835      5838      5841      5843
      5835      5838      5841      5844      5836      5835      5838      5839
      5836      5835      5838      5840      5836      5835      5838      5841
      5837      5835      5838      5839      5837      5835      5838      5840
      5837      5835      5838      5841      5838      5841      5844      5845
      5838      5841      5844      5846      5838      5841      5844      5847
      5839      5838      5841      5842      5839      5838      5841      5843
      5839      5838      5841      5844      5840      5838      5841      5842
      5840      5838      5841      5843      5840      5838      5841      5844
      5841      5844      5847      5848      5841      5844      5847      5849
      5841      5844      5847      5850      5842      5841      5844      5845
      5842      5841      5844      5846      5842      5841      5844      5847
      5843      5841      5844      5845      5843      5841      5844      5846
      5843      5841      5844      5847      5844      5847      5850      5851
      5844      5847      5850      5852      5844      5847      5850      5853
      5845      5844      5847      5848      5845      5844      5847      5849
      5845      5844      5847      5850      5846      5844      5847      5848
      5846      5844      5847      5849      5846      5844      5847      5850
      5848      5847      5850      5851      5848      5847      5850      5852
      5848      5847      5850      5853      5849      5847      5850      5851
      5849      5847      5850      5852      5849      5847      5850      5853
      5854      5857      5860      5861      5854      5857      5860      5862
      5854      5857      5860      5863      5855      5854      5857      5858
      5855      5854      5857      5859      5855      5854      5857      5860
      5856      5854      5857      5858      5856      5854      5857      5859
      5856      5854      5857      5860      5857      5860      5863      5864
      5857      5860      5863      5865      5857      5860      5863      5866
      5858      5857      5860      5861      5858      5857      5860      5862
      5858      5857      5860      5863      5859      5857      5860      5861
      5859      5857      5860      5862      5859      5857      5860      5863
      5860      5863      5866      5867      5860      5863      5866      5868
      5860      5863      5866      5869      5861      5860      5863      5864
      5861      5860      5863      5865      5861      5860      5863      5866
      5862      5860      5863      5864      5862      5860      5863      5865
      5862      5860      5863      5866      5863      5866      5869      5870
      5863      5866      5869      5871      5863      5866      5869      5872
      5864      5863      5866      5867      5864      5863      5866      5868
      5864      5863      5866      5869      5865      5863      5866      5867
      5865      5863      5866      5868      5865      5863      5866      5869
      5866      5869      5872      5873      5866      5869      5872      5874
      5866      5869      5872      5875      5867      5866      5869      5870
      5867      5866      5869      5871      5867      5866      5869      5872
      5868      5866      5869      5870      5868      5866      5869      5871
      5868      5866      5869      5872      5869      5872      5875      5876
      5869      5872      5875      5877      5869      5872      5875      5878
      5870      5869      5872      5873      5870      5869      5872      5874
      5870      5869      5872      5875      5871      5869      5872      5873
      5871      5869      5872      5874      5871      5869      5872      5875
      5872      5875      5878      5879      5872      5875      5878      5880
      5872      5875      5878      5881      5873      5872      5875      5876
      5873      5872      5875      5877      5873      5872      5875      5878
      5874      5872      5875      5876      5874      5872      5875      5877
      5874      5872      5875      5878      5875      5878      5881      5882
      5875      5878      5881      5883      5875      5878      5881      5884
      5876      5875      5878      5879      5876      5875      5878      5880
      5876      5875      5878      5881      5877      5875      5878      5879
      5877      5875      5878      5880      5877      5875      5878      5881
      5878      5881      5884      5885      5878      5881      5884      5886
      5878      5881      5884      5887      5879      5878      5881      5882
      5879      5878      5881      5883      5879      5878      5881      5884
      5880      5878      5881      5882      5880      5878      5881      5883
      5880      5878      5881      5884      5881      5884      5887      5888
      5881      5884      5887      5889      5881      5884      5887      5890
      5882      5881      5884      5885      5882      5881      5884      5886
      5882      5881      5884      5887      5883      5881      5884      5885
      5883      5881      5884      5886      5883      5881      5884      5887
      5884      5887      5890      5891      5884      5887      5890      5892
      5884      5887      5890      5893      5885      5884      5887      5888
      5885      5884      5887      5889      5885      5884      5887      5890
      5886      5884      5887      5888      5886      5884      5887      5889
      5886      5884      5887      5890      5887      5890      5893      5894
      5887      5890      5893      5895      5887      5890      5893      5896
      5888      5887      5890      5891      5888      5887      5890      5892
      5888      5887      5890      5893      5889      5887      5890      5891
      5889      5887      5890      5892      5889      5887      5890      5893
      5891      5890      5893      5894      5891      5890      5893      5895
      5891      5890      5893      5896      5892      5890      5893      5894
      5892      5890      5893      5895      5892      5890      5893      5896
      5897      5898      5913      5914      5897      5898      5913      5915
      5897      5898      5913      5919      5898      5897      5901      5902
      5898      5897      5901      5903      5898      5897      5901      5904
      5898      5897      5905      5906      5898      5897      5905      5907
      5898      5897      5905      5908      5898      5897      5909      5910
      5898      5897      5909      5911      5898      5897      5909      5912
      5898      5913      5919      5916      5899      5898      5897      5901
      5899      5898      5897      5905      5899      5898      5897      5909
      5899      5898      5913      5914      5899      5898      5913      5915
      5899      5898      5913      5919      5900      5898      5897      5901
      5900      5898      5897      5905      5900      5898      5897      5909
      5900      5898      5913      5914      5900      5898      5913      5915
      5900      5898      5913      5919      5901      5897      5898      5913
      5901      5897      5905      5906      5901      5897      5905      5907
      5901      5897      5905      5908      5901      5897      5909      5910
      5901      5897      5909      5911      5901      5897      5909      5912
      5902      5901      5897      5905      5902      5901      5897      5909
      5903      5901      5897      5905      5903      5901      5897      5909
      5904      5901      5897      5905      5904      5901      5897      5909
      5905      5897      5898      5913      5905      5897      5909      5910
      5905      5897      5909      5911      5905      5897      5909      5912
      5906      5905      5897      5909      5907      5905      5897      5909
      5908      5905      5897      5909      5909      5897      5898      5913
      5913      5919      5916      5917      5913      5919      5916      5918
      5913      5919      5916      5920      5914      5913      5919      5916
      5915      5913      5919      5916      5916      5920      5921      5922
      5916      5920      5921      5923      5916      5920      5921      5924
      5917      5916      5920      5921      5918      5916      5920      5921
      5919      5916      5920      5921      5920      5921      5924      5925
      5920      5921      5924      5926      5920      5921      5924      5932
      5921      5924      5926      5927      5921      5924      5932      5933
      5921      5924      5932      5934      5921      5924      5932      5935
      5922      5921      5924      5925      5922      5921      5924      5926
      5922      5921      5924      5932      5923      5921      5924      5925
      5923      5921      5924      5926      5923      5921      5924      5932
      5924      5926      5927      5928      5924      5926      5927      5929
      5924      5932      5935      5936      5925      5924      5926      5927
      5925      5924      5932      5933      5925      5924      5932      5934
      5925      5924      5932      5935      5926      5924      5932      5933
      5926      5924      5932      5934      5926      5924      5932      5935
      5926      5927      5929      5930      5926      5927      5929      5931
      5926      5927      5929      5941      5927      5926      5924      5932
      5927      5929      5941      5942      5927      5929      5941      5943
      5927      5929      5941      5944      5928      5927      5929      5930
      5928      5927      5929      5931      5928      5927      5929      5941
      5929      5941      5944      5945      5929      5941      5944      5946
      5929      5941      5944      5947      5930      5929      5941      5942
      5930      5929      5941      5943      5930      5929      5941      5944
      5931      5929      5941      5942      5931      5929      5941      5943
      5931      5929      5941      5944      5932      5935      5936      5937
      5932      5935      5936      5938      5933      5932      5935      5936
      5934      5932      5935      5936      5935      5936      5938      5939
      5935      5936      5938      5940      5935      5936      5938      5988
      5936      5938      5988      5989      5936      5938      5988      5990
      5936      5938      5988      5991      5937      5936      5938      5939
      5937      5936      5938      5940      5937      5936      5938      5988
      5938      5988      5991      5992      5938      5988      5991      5993
      5938      5988      5991      5994      5939      5938      5988      5989
      5939      5938      5988      5990      5939      5938      5988      5991
      5940      5938      5988      5989      5940      5938      5988      5990
      5940      5938      5988      5991      5941      5944      5947      5948
      5941      5944      5947      5949      5941      5944      5947      5950
      5942      5941      5944      5945      5942      5941      5944      5946
      5942      5941      5944      5947      5943      5941      5944      5945
      5943      5941      5944      5946      5943      5941      5944      5947
      5944      5947      5950      5951      5944      5947      5950      5952
      5944      5947      5950      5953      5945      5944      5947      5948
      5945      5944      5947      5949      5945      5944      5947      5950
      5946      5944      5947      5948      5946      5944      5947      5949
      5946      5944      5947      5950      5947      5950      5953      5954
      5947      5950      5953      5955      5947      5950      5953      5956
      5948      5947      5950      5951      5948      5947      5950      5952
      5948      5947      5950      5953      5949      5947      5950      5951
      5949      5947      5950      5952      5949      5947      5950      5953
      5950      5953      5956      5957      5950      5953      5956      5958
      5950      5953      5956      5959      5951      5950      5953      5954
      5951      5950      5953      5955      5951      5950      5953      5956
      5952      5950      5953      5954      5952      5950      5953      5955
      5952      5950      5953      5956      5953      5956      5959      5960
      5953      5956      5959      5961      5954      5953      5956      5957
      5954      5953      5956      5958      5954      5953      5956      5959
      5955      5953      5956      5957      5955      5953      5956      5958
      5955      5953      5956      5959      5956      5959      5961      5962
      5956      5959      5961      5963      5957      5956      5959      5960
      5957      5956      5959      5961      5958      5956      5959      5960
      5958      5956      5959      5961      5959      5961      5963      5964
      5959      5961      5963      5965      5959      5961      5963      5966
      5960      5959      5961      5962      5960      5959      5961      5963
      5961      5963      5966      5967      5961      5963      5966      5968
      5961      5963      5966      5969      5962      5961      5963      5964
      5962      5961      5963      5965      5962      5961      5963      5966
      5963      5966      5969      5970      5963      5966      5969      5971
      5963      5966      5969      5972      5964      5963      5966      5967
      5964      5963      5966      5968      5964      5963      5966      5969
      5965      5963      5966      5967      5965      5963      5966      5968
      5965      5963      5966      5969      5966      5969      5972      5973
      5966      5969      5972      5974      5966      5969      5972      5975
      5967      5966      5969      5970      5967      5966      5969      5971
      5967      5966      5969      5972      5968      5966      5969      5970
      5968      5966      5969      5971      5968      5966      5969      5972
      5969      5972      5975      5976      5969      5972      5975      5977
      5969      5972      5975      5978      5970      5969      5972      5973
      5970      5969      5972      5974      5970      5969      5972      5975
      5971      5969      5972      5973      5971      5969      5972      5974
      5971      5969      5972      5975      5972      5975      5978      5979
      5972      5975      5978      5980      5972      5975      5978      5981
      5973      5972      5975      5976      5973      5972      5975      5977
      5973      5972      5975      5978      5974      5972      5975      5976
      5974      5972      5975      5977      5974      5972      5975      5978
      5975      5978      5981      5982      5975      5978      5981      5983
      5975      5978      5981      5984      5976      5975      5978      5979
      5976      5975      5978      5980      5976      5975      5978      5981
      5977      5975      5978      5979      5977      5975      5978      5980
      5977      5975      5978      5981      5978      5981      5984      5985
      5978      5981      5984      5986      5978      5981      5984      5987
      5979      5978      5981      5982      5979      5978      5981      5983
      5979      5978      5981      5984      5980      5978      5981      5982
      5980      5978      5981      5983      5980      5978      5981      5984
      5982      5981      5984      5985      5982      5981      5984      5986
      5982      5981      5984      5987      5983      5981      5984      5985
      5983      5981      5984      5986      5983      5981      5984      5987
      5988      5991      5994      5995      5988      5991      5994      5996
      5988      5991      5994      5997      5989      5988      5991      5992
      5989      5988      5991      5993      5989      5988      5991      5994
      5990      5988      5991      5992      5990      5988      5991      5993
      5990      5988      5991      5994      5991      5994      5997      5998
      5991      5994      5997      5999      5991      5994      5997      6000
      5992      5991      5994      5995      5992      5991      5994      5996
      5992      5991      5994      5997      5993      5991      5994      5995
      5993      5991      5994      5996      5993      5991      5994      5997
      5994      5997      6000      6001      5994      5997      6000      6002
      5994      5997      6000      6003      5995      5994      5997      5998
      5995      5994      5997      5999      5995      5994      5997      6000
      5996      5994      5997      5998      5996      5994      5997      5999
      5996      5994      5997      6000      5997      6000      6003      6004
      5997      6000      6003      6005      5997      6000      6003      6006
      5998      5997      6000      6001      5998      5997      6000      6002
      5998      5997      6000      6003      5999      5997      6000      6001
      5999      5997      6000      6002      5999      5997      6000      6003
      6000      6003      6006      6007      6000      6003      6006      6008
      6000      6003      6006      6009      6001      6000      6003      6004
      6001      6000      6003      6005      6001      6000      6003      6006
      6002      6000      6003      6004      6002      6000      6003      6005
      6002      6000      6003      6006      6003      6006      6009      6010
      6003      6006      6009      6011      6003      6006      6009      6012
      6004      6003      6006      6007      6004      6003      6006      6008
      6004      6003      6006      6009      6005      6003      6006      6007
      6005      6003      6006      6008      6005      6003      6006      6009
      6006      6009      6012      6013      6006      6009      6012      6014
      6006      6009      6012      6015      6007      6006      6009      6010
      6007      6006      6009      6011      6007      6006      6009      6012
      6008      6006      6009      6010      6008      6006      6009      6011
      6008      6006      6009      6012      6009      6012      6015      6016
      6009      6012      6015      6017      6009      6012      6015      6018
      6010      6009      6012      6013      6010      6009      6012      6014
      6010      6009      6012      6015      6011      6009      6012      6013
      6011      6009      6012      6014      6011      6009      6012      6015
      6012      6015      6018      6019      6012      6015      6018      6020
      6012      6015      6018      6021      6013      6012      6015      6016
      6013      6012      6015      6017      6013      6012      6015      6018
      6014      6012      6015      6016      6014      6012      6015      6017
      6014      6012      6015      6018      6015      6018      6021      6022
      6015      6018      6021      6023      6015      6018      6021      6024
      6016      6015      6018      6019      6016      6015      6018      6020
      6016      6015      6018      6021      6017      6015      6018      6019
      6017      6015      6018      6020      6017      6015      6018      6021
      6018      6021      6024      6025      6018      6021      6024      6026
      6018      6021      6024      6027      6019      6018      6021      6022
      6019      6018      6021      6023      6019      6018      6021      6024
      6020      6018      6021      6022      6020      6018      6021      6023
      6020      6018      6021      6024      6021      6024      6027      6028
      6021      6024      6027      6029      6021      6024      6027      6030
      6022      6021      6024      6025      6022      6021      6024      6026
      6022      6021      6024      6027      6023      6021      6024      6025
      6023      6021      6024      6026      6023      6021      6024      6027
      6025      6024      6027      6028      6025      6024      6027      6029
      6025      6024      6027      6030      6026      6024      6027      6028
      6026      6024      6027      6029      6026      6024      6027      6030
      6031      6032      6047      6048      6031      6032      6047      6049
      6031      6032      6047      6053      6032      6031      6035      6036
      6032      6031      6035      6037      6032      6031      6035      6038
      6032      6031      6039      6040      6032      6031      6039      6041
      6032      6031      6039      6042      6032      6031      6043      6044
      6032      6031      6043      6045      6032      6031      6043      6046
      6032      6047      6053      6050      6033      6032      6031      6035
      6033      6032      6031      6039      6033      6032      6031      6043
      6033      6032      6047      6048      6033      6032      6047      6049
      6033      6032      6047      6053      6034      6032      6031      6035
      6034      6032      6031      6039      6034      6032      6031      6043
      6034      6032      6047      6048      6034      6032      6047      6049
      6034      6032      6047      6053      6035      6031      6032      6047
      6035      6031      6039      6040      6035      6031      6039      6041
      6035      6031      6039      6042      6035      6031      6043      6044
      6035      6031      6043      6045      6035      6031      6043      6046
      6036      6035      6031      6039      6036      6035      6031      6043
      6037      6035      6031      6039      6037      6035      6031      6043
      6038      6035      6031      6039      6038      6035      6031      6043
      6039      6031      6032      6047      6039      6031      6043      6044
      6039      6031      6043      6045      6039      6031      6043      6046
      6040      6039      6031      6043      6041      6039      6031      6043
      6042      6039      6031      6043      6043      6031      6032      6047
      6047      6053      6050      6051      6047      6053      6050      6052
      6047      6053      6050      6054      6048      6047      6053      6050
      6049      6047      6053      6050      6050      6054      6055      6056
      6050      6054      6055      6057      6050      6054      6055      6058
      6051      6050      6054      6055      6052      6050      6054      6055
      6053      6050      6054      6055      6054      6055      6058      6059
      6054      6055      6058      6060      6054      6055      6058      6066
      6055      6058      6060      6061      6055      6058      6066      6067
      6055      6058      6066      6068      6055      6058      6066      6069
      6056      6055      6058      6059      6056      6055      6058      6060
      6056      6055      6058      6066      6057      6055      6058      6059
      6057      6055      6058      6060      6057      6055      6058      6066
      6058      6060      6061      6062      6058      6060      6061      6063
      6058      6066      6069      6070      6059      6058      6060      6061
      6059      6058      6066      6067      6059      6058      6066      6068
      6059      6058      6066      6069      6060      6058      6066      6067
      6060      6058      6066      6068      6060      6058      6066      6069
      6060      6061      6063      6064      6060      6061      6063      6065
      6060      6061      6063      6075      6061      6060      6058      6066
      6061      6063      6075      6076      6061      6063      6075      6077
      6061      6063      6075      6078      6062      6061      6063      6064
      6062      6061      6063      6065      6062      6061      6063      6075
      6063      6075      6078      6079      6063      6075      6078      6080
      6063      6075      6078      6081      6064      6063      6075      6076
      6064      6063      6075      6077      6064      6063      6075      6078
      6065      6063      6075      6076      6065      6063      6075      6077
      6065      6063      6075      6078      6066      6069      6070      6071
      6066      6069      6070      6072      6067      6066      6069      6070
      6068      6066      6069      6070      6069      6070      6072      6073
      6069      6070      6072      6074      6069      6070      6072      6122
      6070      6072      6122      6123      6070      6072      6122      6124
      6070      6072      6122      6125      6071      6070      6072      6073
      6071      6070      6072      6074      6071      6070      6072      6122
      6072      6122      6125      6126      6072      6122      6125      6127
      6072      6122      6125      6128      6073      6072      6122      6123
      6073      6072      6122      6124      6073      6072      6122      6125
      6074      6072      6122      6123      6074      6072      6122      6124
      6074      6072      6122      6125      6075      6078      6081      6082
      6075      6078      6081      6083      6075      6078      6081      6084
      6076      6075      6078      6079      6076      6075      6078      6080
      6076      6075      6078      6081      6077      6075      6078      6079
      6077      6075      6078      6080      6077      6075      6078      6081
      6078      6081      6084      6085      6078      6081      6084      6086
      6078      6081      6084      6087      6079      6078      6081      6082
      6079      6078      6081      6083      6079      6078      6081      6084
      6080      6078      6081      6082      6080      6078      6081      6083
      6080      6078      6081      6084      6081      6084      6087      6088
      6081      6084      6087      6089      6081      6084      6087      6090
      6082      6081      6084      6085      6082      6081      6084      6086
      6082      6081      6084      6087      6083      6081      6084      6085
      6083      6081      6084      6086      6083      6081      6084      6087
      6084      6087      6090      6091      6084      6087      6090      6092
      6084      6087      6090      6093      6085      6084      6087      6088
      6085      6084      6087      6089      6085      6084      6087      6090
      6086      6084      6087      6088      6086      6084      6087      6089
      6086      6084      6087      6090      6087      6090      6093      6094
      6087      6090      6093      6095      6088      6087      6090      6091
      6088      6087      6090      6092      6088      6087      6090      6093
      6089      6087      6090      6091      6089      6087      6090      6092
      6089      6087      6090      6093      6090      6093      6095      6096
      6090      6093      6095      6097      6091      6090      6093      6094
      6091      6090      6093      6095      6092      6090      6093      6094
      6092      6090      6093      6095      6093      6095      6097      6098
      6093      6095      6097      6099      6093      6095      6097      6100
      6094      6093      6095      6096      6094      6093      6095      6097
      6095      6097      6100      6101      6095      6097      6100      6102
      6095      6097      6100      6103      6096      6095      6097      6098
      6096      6095      6097      6099      6096      6095      6097      6100
      6097      6100      6103      6104      6097      6100      6103      6105
      6097      6100      6103      6106      6098      6097      6100      6101
      6098      6097      6100      6102      6098      6097      6100      6103
      6099      6097      6100      6101      6099      6097      6100      6102
      6099      6097      6100      6103      6100      6103      6106      6107
      6100      6103      6106      6108      6100      6103      6106      6109
      6101      6100      6103      6104      6101      6100      6103      6105
      6101      6100      6103      6106      6102      6100      6103      6104
      6102      6100      6103      6105      6102      6100      6103      6106
      6103      6106      6109      6110      6103      6106      6109      6111
      6103      6106      6109      6112      6104      6103      6106      6107
      6104      6103      6106      6108      6104      6103      6106      6109
      6105      6103      6106      6107      6105      6103      6106      6108
      6105      6103      6106      6109      6106      6109      6112      6113
      6106      6109      6112      6114      6106      6109      6112      6115
      6107      6106      6109      6110      6107      6106      6109      6111
      6107      6106      6109      6112      6108      6106      6109      6110
      6108      6106      6109      6111      6108      6106      6109      6112
      6109      6112      6115      6116      6109      6112      6115      6117
      6109      6112      6115      6118      6110      6109      6112      6113
      6110      6109      6112      6114      6110      6109      6112      6115
      6111      6109      6112      6113      6111      6109      6112      6114
      6111      6109      6112      6115      6112      6115      6118      6119
      6112      6115      6118      6120      6112      6115      6118      6121
      6113      6112      6115      6116      6113      6112      6115      6117
      6113      6112      6115      6118      6114      6112      6115      6116
      6114      6112      6115      6117      6114      6112      6115      6118
      6116      6115      6118      6119      6116      6115      6118      6120
      6116      6115      6118      6121      6117      6115      6118      6119
      6117      6115      6118      6120      6117      6115      6118      6121
      6122      6125      6128      6129      6122      6125      6128      6130
      6122      6125      6128      6131      6123      6122      6125      6126
      6123      6122      6125      6127      6123      6122      6125      6128
      6124      6122      6125      6126      6124      6122      6125      6127
      6124      6122      6125      6128      6125      6128      6131      6132
      6125      6128      6131      6133      6125      6128      6131      6134
      6126      6125      6128      6129      6126      6125      6128      6130
      6126      6125      6128      6131      6127      6125      6128      6129
      6127      6125      6128      6130      6127      6125      6128      6131
      6128      6131      6134      6135      6128      6131      6134      6136
      6128      6131      6134      6137      6129      6128      6131      6132
      6129      6128      6131      6133      6129      6128      6131      6134
      6130      6128      6131      6132      6130      6128      6131      6133
      6130      6128      6131      6134      6131      6134      6137      6138
      6131      6134      6137      6139      6131      6134      6137      6140
      6132      6131      6134      6135      6132      6131      6134      6136
      6132      6131      6134      6137      6133      6131      6134      6135
      6133      6131      6134      6136      6133      6131      6134      6137
      6134      6137      6140      6141      6134      6137      6140      6142
      6134      6137      6140      6143      6135      6134      6137      6138
      6135      6134      6137      6139      6135      6134      6137      6140
      6136      6134      6137      6138      6136      6134      6137      6139
      6136      6134      6137      6140      6137      6140      6143      6144
      6137      6140      6143      6145      6137      6140      6143      6146
      6138      6137      6140      6141      6138      6137      6140      6142
      6138      6137      6140      6143      6139      6137      6140      6141
      6139      6137      6140      6142      6139      6137      6140      6143
      6140      6143      6146      6147      6140      6143      6146      6148
      6140      6143      6146      6149      6141      6140      6143      6144
      6141      6140      6143      6145      6141      6140      6143      6146
      6142      6140      6143      6144      6142      6140      6143      6145
      6142      6140      6143      6146      6143      6146      6149      6150
      6143      6146      6149      6151      6143      6146      6149      6152
      6144      6143      6146      6147      6144      6143      6146      6148
      6144      6143      6146      6149      6145      6143      6146      6147
      6145      6143      6146      6148      6145      6143      6146      6149
      6146      6149      6152      6153      6146      6149      6152      6154
      6146      6149      6152      6155      6147      6146      6149      6150
      6147      6146      6149      6151      6147      6146      6149      6152
      6148      6146      6149      6150      6148      6146      6149      6151
      6148      6146      6149      6152      6149      6152      6155      6156
      6149      6152      6155      6157      6149      6152      6155      6158
      6150      6149      6152      6153      6150      6149      6152      6154
      6150      6149      6152      6155      6151      6149      6152      6153
      6151      6149      6152      6154      6151      6149      6152      6155
      6152      6155      6158      6159      6152      6155      6158      6160
      6152      6155      6158      6161      6153      6152      6155      6156
      6153      6152      6155      6157      6153      6152      6155      6158
      6154      6152      6155      6156      6154      6152      6155      6157
      6154      6152      6155      6158      6155      6158      6161      6162
      6155      6158      6161      6163      6155      6158      6161      6164
      6156      6155      6158      6159      6156      6155      6158      6160
      6156      6155      6158      6161      6157      6155      6158      6159
      6157      6155      6158      6160      6157      6155      6158      6161
      6159      6158      6161      6162      6159      6158      6161      6163
      6159      6158      6161      6164      6160      6158      6161      6162
      6160      6158      6161      6163      6160      6158      6161      6164
      6165      6166      6181      6182      6165      6166      6181      6183
      6165      6166      6181      6187      6166      6165      6169      6170
      6166      6165      6169      6171      6166      6165      6169      6172
      6166      6165      6173      6174      6166      6165      6173      6175
      6166      6165      6173      6176      6166      6165      6177      6178
      6166      6165      6177      6179      6166      6165      6177      6180
      6166      6181      6187      6184      6167      6166      6165      6169
      6167      6166      6165      6173      6167      6166      6165      6177
      6167      6166      6181      6182      6167      6166      6181      6183
      6167      6166      6181      6187      6168      6166      6165      6169
      6168      6166      6165      6173      6168      6166      6165      6177
      6168      6166      6181      6182      6168      6166      6181      6183
      6168      6166      6181      6187      6169      6165      6166      6181
      6169      6165      6173      6174      6169      6165      6173      6175
      6169      6165      6173      6176      6169      6165      6177      6178
      6169      6165      6177      6179      6169      6165      6177      6180
      6170      6169      6165      6173      6170      6169      6165      6177
      6171      6169      6165      6173      6171      6169      6165      6177
      6172      6169      6165      6173      6172      6169      6165      6177
      6173      6165      6166      6181      6173      6165      6177      6178
      6173      6165      6177      6179      6173      6165      6177      6180
      6174      6173      6165      6177      6175      6173      6165      6177
      6176      6173      6165      6177      6177      6165      6166      6181
      6181      6187      6184      6185      6181      6187      6184      6186
      6181      6187      6184      6188      6182      6181      6187      6184
      6183      6181      6187      6184      6184      6188      6189      6190
      6184      6188      6189      6191      6184      6188      6189      6192
      6185      6184      6188      6189      6186      6184      6188      6189
      6187      6184      6188      6189      6188      6189      6192      6193
      6188      6189      6192      6194      6188      6189      6192      6200
      6189      6192      6194      6195      6189      6192      6200      6201
      6189      6192      6200      6202      6189      6192      6200      6203
      6190      6189      6192      6193      6190      6189      6192      6194
      6190      6189      6192      6200      6191      6189      6192      6193
      6191      6189      6192      6194      6191      6189      6192      6200
      6192      6194      6195      6196      6192      6194      6195      6197
      6192      6200      6203      6204      6193      6192      6194      6195
      6193      6192      6200      6201      6193      6192      6200      6202
      6193      6192      6200      6203      6194      6192      6200      6201
      6194      6192      6200      6202      6194      6192      6200      6203
      6194      6195      6197      6198      6194      6195      6197      6199
      6194      6195      6197      6209      6195      6194      6192      6200
      6195      6197      6209      6210      6195      6197      6209      6211
      6195      6197      6209      6212      6196      6195      6197      6198
      6196      6195      6197      6199      6196      6195      6197      6209
      6197      6209      6212      6213      6197      6209      6212      6214
      6197      6209      6212      6215      6198      6197      6209      6210
      6198      6197      6209      6211      6198      6197      6209      6212
      6199      6197      6209      6210      6199      6197      6209      6211
      6199      6197      6209      6212      6200      6203      6204      6205
      6200      6203      6204      6206      6201      6200      6203      6204
      6202      6200      6203      6204      6203      6204      6206      6207
      6203      6204      6206      6208      6203      6204      6206      6256
      6204      6206      6256      6257      6204      6206      6256      6258
      6204      6206      6256      6259      6205      6204      6206      6207
      6205      6204      6206      6208      6205      6204      6206      6256
      6206      6256      6259      6260      6206      6256      6259      6261
      6206      6256      6259      6262      6207      6206      6256      6257
      6207      6206      6256      6258      6207      6206      6256      6259
      6208      6206      6256      6257      6208      6206      6256      6258
      6208      6206      6256      6259      6209      6212      6215      6216
      6209      6212      6215      6217      6209      6212      6215      6218
      6210      6209      6212      6213      6210      6209      6212      6214
      6210      6209      6212      6215      6211      6209      6212      6213
      6211      6209      6212      6214      6211      6209      6212      6215
      6212      6215      6218      6219      6212      6215      6218      6220
      6212      6215      6218      6221      6213      6212      6215      6216
      6213      6212      6215      6217      6213      6212      6215      6218
      6214      6212      6215      6216      6214      6212      6215      6217
      6214      6212      6215      6218      6215      6218      6221      6222
      6215      6218      6221      6223      6215      6218      6221      6224
      6216      6215      6218      6219      6216      6215      6218      6220
      6216      6215      6218      6221      6217      6215      6218      6219
      6217      6215      6218      6220      6217      6215      6218      6221
      6218      6221      6224      6225      6218      6221      6224      6226
      6218      6221      6224      6227      6219      6218      6221      6222
      6219      6218      6221      6223      6219      6218      6221      6224
      6220      6218      6221      6222      6220      6218      6221      6223
      6220      6218      6221      6224      6221      6224      6227      6228
      6221      6224      6227      6229      6222      6221      6224      6225
      6222      6221      6224      6226      6222      6221      6224      6227
      6223      6221      6224      6225      6223      6221      6224      6226
      6223      6221      6224      6227      6224      6227      6229      6230
      6224      6227      6229      6231      6225      6224      6227      6228
      6225      6224      6227      6229      6226      6224      6227      6228
      6226      6224      6227      6229      6227      6229      6231      6232
      6227      6229      6231      6233      6227      6229      6231      6234
      6228      6227      6229      6230      6228      6227      6229      6231
      6229      6231      6234      6235      6229      6231      6234      6236
      6229      6231      6234      6237      6230      6229      6231      6232
      6230      6229      6231      6233      6230      6229      6231      6234
      6231      6234      6237      6238      6231      6234      6237      6239
      6231      6234      6237      6240      6232      6231      6234      6235
      6232      6231      6234      6236      6232      6231      6234      6237
      6233      6231      6234      6235      6233      6231      6234      6236
      6233      6231      6234      6237      6234      6237      6240      6241
      6234      6237      6240      6242      6234      6237      6240      6243
      6235      6234      6237      6238      6235      6234      6237      6239
      6235      6234      6237      6240      6236      6234      6237      6238
      6236      6234      6237      6239      6236      6234      6237      6240
      6237      6240      6243      6244      6237      6240      6243      6245
      6237      6240      6243      6246      6238      6237      6240      6241
      6238      6237      6240      6242      6238      6237      6240      6243
      6239      6237      6240      6241      6239      6237      6240      6242
      6239      6237      6240      6243      6240      6243      6246      6247
      6240      6243      6246      6248      6240      6243      6246      6249
      6241      6240      6243      6244      6241      6240      6243      6245
      6241      6240      6243      6246      6242      6240      6243      6244
      6242      6240      6243      6245      6242      6240      6243      6246
      6243      6246      6249      6250      6243      6246      6249      6251
      6243      6246      6249      6252      6244      6243      6246      6247
      6244      6243      6246      6248      6244      6243      6246      6249
      6245      6243      6246      6247      6245      6243      6246      6248
      6245      6243      6246      6249      6246      6249      6252      6253
      6246      6249      6252      6254      6246      6249      6252      6255
      6247      6246      6249      6250      6247      6246      6249      6251
      6247      6246      6249      6252      6248      6246      6249      6250
      6248      6246      6249      6251      6248      6246      6249      6252
      6250      6249      6252      6253      6250      6249      6252      6254
      6250      6249      6252      6255      6251      6249      6252      6253
      6251      6249      6252      6254      6251      6249      6252      6255
      6256      6259      6262      6263      6256      6259      6262      6264
      6256      6259      6262      6265      6257      6256      6259      6260
      6257      6256      6259      6261      6257      6256      6259      6262
      6258      6256      6259      6260      6258      6256      6259      6261
      6258      6256      6259      6262      6259      6262      6265      6266
      6259      6262      6265      6267      6259      6262      6265      6268
      6260      6259      6262      6263      6260      6259      6262      6264
      6260      6259      6262      6265      6261      6259      6262      6263
      6261      6259      6262      6264      6261      6259      6262      6265
      6262      6265      6268      6269      6262      6265      6268      6270
      6262      6265      6268      6271      6263      6262      6265      6266
      6263      6262      6265      6267      6263      6262      6265      6268
      6264      6262      6265      6266      6264      6262      6265      6267
      6264      6262      6265      6268      6265      6268      6271      6272
      6265      6268      6271      6273      6265      6268      6271      6274
      6266      6265      6268      6269      6266      6265      6268      6270
      6266      6265      6268      6271      6267      6265      6268      6269
      6267      6265      6268      6270      6267      6265      6268      6271
      6268      6271      6274      6275      6268      6271      6274      6276
      6268      6271      6274      6277      6269      6268      6271      6272
      6269      6268      6271      6273      6269      6268      6271      6274
      6270      6268      6271      6272      6270      6268      6271      6273
      6270      6268      6271      6274      6271      6274      6277      6278
      6271      6274      6277      6279      6271      6274      6277      6280
      6272      6271      6274      6275      6272      6271      6274      6276
      6272      6271      6274      6277      6273      6271      6274      6275
      6273      6271      6274      6276      6273      6271      6274      6277
      6274      6277      6280      6281      6274      6277      6280      6282
      6274      6277      6280      6283      6275      6274      6277      6278
      6275      6274      6277      6279      6275      6274      6277      6280
      6276      6274      6277      6278      6276      6274      6277      6279
      6276      6274      6277      6280      6277      6280      6283      6284
      6277      6280      6283      6285      6277      6280      6283      6286
      6278      6277      6280      6281      6278      6277      6280      6282
      6278      6277      6280      6283      6279      6277      6280      6281
      6279      6277      6280      6282      6279      6277      6280      6283
      6280      6283      6286      6287      6280      6283      6286      6288
      6280      6283      6286      6289      6281      6280      6283      6284
      6281      6280      6283      6285      6281      6280      6283      6286
      6282      6280      6283      6284      6282      6280      6283      6285
      6282      6280      6283      6286      6283      6286      6289      6290
      6283      6286      6289      6291      6283      6286      6289      6292
      6284      6283      6286      6287      6284      6283      6286      6288
      6284      6283      6286      6289      6285      6283      6286      6287
      6285      6283      6286      6288      6285      6283      6286      6289
      6286      6289      6292      6293      6286      6289      6292      6294
      6286      6289      6292      6295      6287      6286      6289      6290
      6287      6286      6289      6291      6287      6286      6289      6292
      6288      6286      6289      6290      6288      6286      6289      6291
      6288      6286      6289      6292      6289      6292      6295      6296
      6289      6292      6295      6297      6289      6292      6295      6298
      6290      6289      6292      6293      6290      6289      6292      6294
      6290      6289      6292      6295      6291      6289      6292      6293
      6291      6289      6292      6294      6291      6289      6292      6295
      6293      6292      6295      6296      6293      6292      6295      6297
      6293      6292      6295      6298      6294      6292      6295      6296
      6294      6292      6295      6297      6294      6292      6295      6298
      6299      6300      6315      6316      6299      6300      6315      6317
      6299      6300      6315      6321      6300      6299      6303      6304
      6300      6299      6303      6305      6300      6299      6303      6306
      6300      6299      6307      6308      6300      6299      6307      6309
      6300      6299      6307      6310      6300      6299      6311      6312
      6300      6299      6311      6313      6300      6299      6311      6314
      6300      6315      6321      6318      6301      6300      6299      6303
      6301      6300      6299      6307      6301      6300      6299      6311
      6301      6300      6315      6316      6301      6300      6315      6317
      6301      6300      6315      6321      6302      6300      6299      6303
      6302      6300      6299      6307      6302      6300      6299      6311
      6302      6300      6315      6316      6302      6300      6315      6317
      6302      6300      6315      6321      6303      6299      6300      6315
      6303      6299      6307      6308      6303      6299      6307      6309
      6303      6299      6307      6310      6303      6299      6311      6312
      6303      6299      6311      6313      6303      6299      6311      6314
      6304      6303      6299      6307      6304      6303      6299      6311
      6305      6303      6299      6307      6305      6303      6299      6311
      6306      6303      6299      6307      6306      6303      6299      6311
      6307      6299      6300      6315      6307      6299      6311      6312
      6307      6299      6311      6313      6307      6299      6311      6314
      6308      6307      6299      6311      6309      6307      6299      6311
      6310      6307      6299      6311      6311      6299      6300      6315
      6315      6321      6318      6319      6315      6321      6318      6320
      6315      6321      6318      6322      6316      6315      6321      6318
      6317      6315      6321      6318      6318      6322      6323      6324
      6318      6322      6323      6325      6318      6322      6323      6326
      6319      6318      6322      6323      6320      6318      6322      6323
      6321      6318      6322      6323      6322      6323      6326      6327
      6322      6323      6326      6328      6322      6323      6326      6334
      6323      6326      6328      6329      6323      6326      6334      6335
      6323      6326      6334      6336      6323      6326      6334      6337
      6324      6323      6326      6327      6324      6323      6326      6328
      6324      6323      6326      6334      6325      6323      6326      6327
      6325      6323      6326      6328      6325      6323      6326      6334
      6326      6328      6329      6330      6326      6328      6329      6331
      6326      6334      6337      6338      6327      6326      6328      6329
      6327      6326      6334      6335      6327      6326      6334      6336
      6327      6326      6334      6337      6328      6326      6334      6335
      6328      6326      6334      6336      6328      6326      6334      6337
      6328      6329      6331      6332      6328      6329      6331      6333
      6328      6329      6331      6343      6329      6328      6326      6334
      6329      6331      6343      6344      6329      6331      6343      6345
      6329      6331      6343      6346      6330      6329      6331      6332
      6330      6329      6331      6333      6330      6329      6331      6343
      6331      6343      6346      6347      6331      6343      6346      6348
      6331      6343      6346      6349      6332      6331      6343      6344
      6332      6331      6343      6345      6332      6331      6343      6346
      6333      6331      6343      6344      6333      6331      6343      6345
      6333      6331      6343      6346      6334      6337      6338      6339
      6334      6337      6338      6340      6335      6334      6337      6338
      6336      6334      6337      6338      6337      6338      6340      6341
      6337      6338      6340      6342      6337      6338      6340      6390
      6338      6340      6390      6391      6338      6340      6390      6392
      6338      6340      6390      6393      6339      6338      6340      6341
      6339      6338      6340      6342      6339      6338      6340      6390
      6340      6390      6393      6394      6340      6390      6393      6395
      6340      6390      6393      6396      6341      6340      6390      6391
      6341      6340      6390      6392      6341      6340      6390      6393
      6342      6340      6390      6391      6342      6340      6390      6392
      6342      6340      6390      6393      6343      6346      6349      6350
      6343      6346      6349      6351      6343      6346      6349      6352
      6344      6343      6346      6347      6344      6343      6346      6348
      6344      6343      6346      6349      6345      6343      6346      6347
      6345      6343      6346      6348      6345      6343      6346      6349
      6346      6349      6352      6353      6346      6349      6352      6354
      6346      6349      6352      6355      6347      6346      6349      6350
      6347      6346      6349      6351      6347      6346      6349      6352
      6348      6346      6349      6350      6348      6346      6349      6351
      6348      6346      6349      6352      6349      6352      6355      6356
      6349      6352      6355      6357      6349      6352      6355      6358
      6350      6349      6352      6353      6350      6349      6352      6354
      6350      6349      6352      6355      6351      6349      6352      6353
      6351      6349      6352      6354      6351      6349      6352      6355
      6352      6355      6358      6359      6352      6355      6358      6360
      6352      6355      6358      6361      6353      6352      6355      6356
      6353      6352      6355      6357      6353      6352      6355      6358
      6354      6352      6355      6356      6354      6352      6355      6357
      6354      6352      6355      6358      6355      6358      6361      6362
      6355      6358      6361      6363      6356      6355      6358      6359
      6356      6355      6358      6360      6356      6355      6358      6361
      6357      6355      6358      6359      6357      6355      6358      6360
      6357      6355      6358      6361      6358      6361      6363      6364
      6358      6361      6363      6365      6359      6358      6361      6362
      6359      6358      6361      6363      6360      6358      6361      6362
      6360      6358      6361      6363      6361      6363      6365      6366
      6361      6363      6365      6367      6361      6363      6365      6368
      6362      6361      6363      6364      6362      6361      6363      6365
      6363      6365      6368      6369      6363      6365      6368      6370
      6363      6365      6368      6371      6364      6363      6365      6366
      6364      6363      6365      6367      6364      6363      6365      6368
      6365      6368      6371      6372      6365      6368      6371      6373
      6365      6368      6371      6374      6366      6365      6368      6369
      6366      6365      6368      6370      6366      6365      6368      6371
      6367      6365      6368      6369      6367      6365      6368      6370
      6367      6365      6368      6371      6368      6371      6374      6375
      6368      6371      6374      6376      6368      6371      6374      6377
      6369      6368      6371      6372      6369      6368      6371      6373
      6369      6368      6371      6374      6370      6368      6371      6372
      6370      6368      6371      6373      6370      6368      6371      6374
      6371      6374      6377      6378      6371      6374      6377      6379
      6371      6374      6377      6380      6372      6371      6374      6375
      6372      6371      6374      6376      6372      6371      6374      6377
      6373      6371      6374      6375      6373      6371      6374      6376
      6373      6371      6374      6377      6374      6377      6380      6381
      6374      6377      6380      6382      6374      6377      6380      6383
      6375      6374      6377      6378      6375      6374      6377      6379
      6375      6374      6377      6380      6376      6374      6377      6378
      6376      6374      6377      6379      6376      6374      6377      6380
      6377      6380      6383      6384      6377      6380      6383      6385
      6377      6380      6383      6386      6378      6377      6380      6381
      6378      6377      6380      6382      6378      6377      6380      6383
      6379      6377      6380      6381      6379      6377      6380      6382
      6379      6377      6380      6383      6380      6383      6386      6387
      6380      6383      6386      6388      6380      6383      6386      6389
      6381      6380      6383      6384      6381      6380      6383      6385
      6381      6380      6383      6386      6382      6380      6383      6384
      6382      6380      6383      6385      6382      6380      6383      6386
      6384      6383      6386      6387      6384      6383      6386      6388
      6384      6383      6386      6389      6385      6383      6386      6387
      6385      6383      6386      6388      6385      6383      6386      6389
      6390      6393      6396      6397      6390      6393      6396      6398
      6390      6393      6396      6399      6391      6390      6393      6394
      6391      6390      6393      6395      6391      6390      6393      6396
      6392      6390      6393      6394      6392      6390      6393      6395
      6392      6390      6393      6396      6393      6396      6399      6400
      6393      6396      6399      6401      6393      6396      6399      6402
      6394      6393      6396      6397      6394      6393      6396      6398
      6394      6393      6396      6399      6395      6393      6396      6397
      6395      6393      6396      6398      6395      6393      6396      6399
      6396      6399      6402      6403      6396      6399      6402      6404
      6396      6399      6402      6405      6397      6396      6399      6400
      6397      6396      6399      6401      6397      6396      6399      6402
      6398      6396      6399      6400      6398      6396      6399      6401
      6398      6396      6399      6402      6399      6402      6405      6406
      6399      6402      6405      6407      6399      6402      6405      6408
      6400      6399      6402      6403      6400      6399      6402      6404
      6400      6399      6402      6405      6401      6399      6402      6403
      6401      6399      6402      6404      6401      6399      6402      6405
      6402      6405      6408      6409      6402      6405      6408      6410
      6402      6405      6408      6411      6403      6402      6405      6406
      6403      6402      6405      6407      6403      6402      6405      6408
      6404      6402      6405      6406      6404      6402      6405      6407
      6404      6402      6405      6408      6405      6408      6411      6412
      6405      6408      6411      6413      6405      6408      6411      6414
      6406      6405      6408      6409      6406      6405      6408      6410
      6406      6405      6408      6411      6407      6405      6408      6409
      6407      6405      6408      6410      6407      6405      6408      6411
      6408      6411      6414      6415      6408      6411      6414      6416
      6408      6411      6414      6417      6409      6408      6411      6412
      6409      6408      6411      6413      6409      6408      6411      6414
      6410      6408      6411      6412      6410      6408      6411      6413
      6410      6408      6411      6414      6411      6414      6417      6418
      6411      6414      6417      6419      6411      6414      6417      6420
      6412      6411      6414      6415      6412      6411      6414      6416
      6412      6411      6414      6417      6413      6411      6414      6415
      6413      6411      6414      6416      6413      6411      6414      6417
      6414      6417      6420      6421      6414      6417      6420      6422
      6414      6417      6420      6423      6415      6414      6417      6418
      6415      6414      6417      6419      6415      6414      6417      6420
      6416      6414      6417      6418      6416      6414      6417      6419
      6416      6414      6417      6420      6417      6420      6423      6424
      6417      6420      6423      6425      6417      6420      6423      6426
      6418      6417      6420      6421      6418      6417      6420      6422
      6418      6417      6420      6423      6419      6417      6420      6421
      6419      6417      6420      6422      6419      6417      6420      6423
      6420      6423      6426      6427      6420      6423      6426      6428
      6420      6423      6426      6429      6421      6420      6423      6424
      6421      6420      6423      6425      6421      6420      6423      6426
      6422      6420      6423      6424      6422      6420      6423      6425
      6422      6420      6423      6426      6423      6426      6429      6430
      6423      6426      6429      6431      6423      6426      6429      6432
      6424      6423      6426      6427      6424      6423      6426      6428
      6424      6423      6426      6429      6425      6423      6426      6427
      6425      6423      6426      6428      6425      6423      6426      6429
      6427      6426      6429      6430      6427      6426      6429      6431
      6427      6426      6429      6432      6428      6426      6429      6430
      6428      6426      6429      6431      6428      6426      6429      6432
      6433      6434      6449      6450      6433      6434      6449      6451
      6433      6434      6449      6455      6434      6433      6437      6438
      6434      6433      6437      6439      6434      6433      6437      6440
      6434      6433      6441      6442      6434      6433      6441      6443
      6434      6433      6441      6444      6434      6433      6445      6446
      6434      6433      6445      6447      6434      6433      6445      6448
      6434      6449      6455      6452      6435      6434      6433      6437
      6435      6434      6433      6441      6435      6434      6433      6445
      6435      6434      6449      6450      6435      6434      6449      6451
      6435      6434      6449      6455      6436      6434      6433      6437
      6436      6434      6433      6441      6436      6434      6433      6445
      6436      6434      6449      6450      6436      6434      6449      6451
      6436      6434      6449      6455      6437      6433      6434      6449
      6437      6433      6441      6442      6437      6433      6441      6443
      6437      6433      6441      6444      6437      6433      6445      6446
      6437      6433      6445      6447      6437      6433      6445      6448
      6438      6437      6433      6441      6438      6437      6433      6445
      6439      6437      6433      6441      6439      6437      6433      6445
      6440      6437      6433      6441      6440      6437      6433      6445
      6441      6433      6434      6449      6441      6433      6445      6446
      6441      6433      6445      6447      6441      6433      6445      6448
      6442      6441      6433      6445      6443      6441      6433      6445
      6444      6441      6433      6445      6445      6433      6434      6449
      6449      6455      6452      6453      6449      6455      6452      6454
      6449      6455      6452      6456      6450      6449      6455      6452
      6451      6449      6455      6452      6452      6456      6457      6458
      6452      6456      6457      6459      6452      6456      6457      6460
      6453      6452      6456      6457      6454      6452      6456      6457
      6455      6452      6456      6457      6456      6457      6460      6461
      6456      6457      6460      6462      6456      6457      6460      6468
      6457      6460      6462      6463      6457      6460      6468      6469
      6457      6460      6468      6470      6457      6460      6468      6471
      6458      6457      6460      6461      6458      6457      6460      6462
      6458      6457      6460      6468      6459      6457      6460      6461
      6459      6457      6460      6462      6459      6457      6460      6468
      6460      6462      6463      6464      6460      6462      6463      6465
      6460      6468      6471      6472      6461      6460      6462      6463
      6461      6460      6468      6469      6461      6460      6468      6470
      6461      6460      6468      6471      6462      6460      6468      6469
      6462      6460      6468      6470      6462      6460      6468      6471
      6462      6463      6465      6466      6462      6463      6465      6467
      6462      6463      6465      6477      6463      6462      6460      6468
      6463      6465      6477      6478      6463      6465      6477      6479
      6463      6465      6477      6480      6464      6463      6465      6466
      6464      6463      6465      6467      6464      6463      6465      6477
      6465      6477      6480      6481      6465      6477      6480      6482
      6465      6477      6480      6483      6466      6465      6477      6478
      6466      6465      6477      6479      6466      6465      6477      6480
      6467      6465      6477      6478      6467      6465      6477      6479
      6467      6465      6477      6480      6468      6471      6472      6473
      6468      6471      6472      6474      6469      6468      6471      6472
      6470      6468      6471      6472      6471      6472      6474      6475
      6471      6472      6474      6476      6471      6472      6474      6524
      6472      6474      6524      6525      6472      6474      6524      6526
      6472      6474      6524      6527      6473      6472      6474      6475
      6473      6472      6474      6476      6473      6472      6474      6524
      6474      6524      6527      6528      6474      6524      6527      6529
      6474      6524      6527      6530      6475      6474      6524      6525
      6475      6474      6524      6526      6475      6474      6524      6527
      6476      6474      6524      6525      6476      6474      6524      6526
      6476      6474      6524      6527      6477      6480      6483      6484
      6477      6480      6483      6485      6477      6480      6483      6486
      6478      6477      6480      6481      6478      6477      6480      6482
      6478      6477      6480      6483      6479      6477      6480      6481
      6479      6477      6480      6482      6479      6477      6480      6483
      6480      6483      6486      6487      6480      6483      6486      6488
      6480      6483      6486      6489      6481      6480      6483      6484
      6481      6480      6483      6485      6481      6480      6483      6486
      6482      6480      6483      6484      6482      6480      6483      6485
      6482      6480      6483      6486      6483      6486      6489      6490
      6483      6486      6489      6491      6483      6486      6489      6492
      6484      6483      6486      6487      6484      6483      6486      6488
      6484      6483      6486      6489      6485      6483      6486      6487
      6485      6483      6486      6488      6485      6483      6486      6489
      6486      6489      6492      6493      6486      6489      6492      6494
      6486      6489      6492      6495      6487      6486      6489      6490
      6487      6486      6489      6491      6487      6486      6489      6492
      6488      6486      6489      6490      6488      6486      6489      6491
      6488      6486      6489      6492      6489      6492      6495      6496
      6489      6492      6495      6497      6490      6489      6492      6493
      6490      6489      6492      6494      6490      6489      6492      6495
      6491      6489      6492      6493      6491      6489      6492      6494
      6491      6489      6492      6495      6492      6495      6497      6498
      6492      6495      6497      6499      6493      6492      6495      6496
      6493      6492      6495      6497      6494      6492      6495      6496
      6494      6492      6495      6497      6495      6497      6499      6500
      6495      6497      6499      6501      6495      6497      6499      6502
      6496      6495      6497      6498      6496      6495      6497      6499
      6497      6499      6502      6503      6497      6499      6502      6504
      6497      6499      6502      6505      6498      6497      6499      6500
      6498      6497      6499      6501      6498      6497      6499      6502
      6499      6502      6505      6506      6499      6502      6505      6507
      6499      6502      6505      6508      6500      6499      6502      6503
      6500      6499      6502      6504      6500      6499      6502      6505
      6501      6499      6502      6503      6501      6499      6502      6504
      6501      6499      6502      6505      6502      6505      6508      6509
      6502      6505      6508      6510      6502      6505      6508      6511
      6503      6502      6505      6506      6503      6502      6505      6507
      6503      6502      6505      6508      6504      6502      6505      6506
      6504      6502      6505      6507      6504      6502      6505      6508
      6505      6508      6511      6512      6505      6508      6511      6513
      6505      6508      6511      6514      6506      6505      6508      6509
      6506      6505      6508      6510      6506      6505      6508      6511
      6507      6505      6508      6509      6507      6505      6508      6510
      6507      6505      6508      6511      6508      6511      6514      6515
      6508      6511      6514      6516      6508      6511      6514      6517
      6509      6508      6511      6512      6509      6508      6511      6513
      6509      6508      6511      6514      6510      6508      6511      6512
      6510      6508      6511      6513      6510      6508      6511      6514
      6511      6514      6517      6518      6511      6514      6517      6519
      6511      6514      6517      6520      6512      6511      6514      6515
      6512      6511      6514      6516      6512      6511      6514      6517
      6513      6511      6514      6515      6513      6511      6514      6516
      6513      6511      6514      6517      6514      6517      6520      6521
      6514      6517      6520      6522      6514      6517      6520      6523
      6515      6514      6517      6518      6515      6514      6517      6519
      6515      6514      6517      6520      6516      6514      6517      6518
      6516      6514      6517      6519      6516      6514      6517      6520
      6518      6517      6520      6521      6518      6517      6520      6522
      6518      6517      6520      6523      6519      6517      6520      6521
      6519      6517      6520      6522      6519      6517      6520      6523
      6524      6527      6530      6531      6524      6527      6530      6532
      6524      6527      6530      6533      6525      6524      6527      6528
      6525      6524      6527      6529      6525      6524      6527      6530
      6526      6524      6527      6528      6526      6524      6527      6529
      6526      6524      6527      6530      6527      6530      6533      6534
      6527      6530      6533      6535      6527      6530      6533      6536
      6528      6527      6530      6531      6528      6527      6530      6532
      6528      6527      6530      6533      6529      6527      6530      6531
      6529      6527      6530      6532      6529      6527      6530      6533
      6530      6533      6536      6537      6530      6533      6536      6538
      6530      6533      6536      6539      6531      6530      6533      6534
      6531      6530      6533      6535      6531      6530      6533      6536
      6532      6530      6533      6534      6532      6530      6533      6535
      6532      6530      6533      6536      6533      6536      6539      6540
      6533      6536      6539      6541      6533      6536      6539      6542
      6534      6533      6536      6537      6534      6533      6536      6538
      6534      6533      6536      6539      6535      6533      6536      6537
      6535      6533      6536      6538      6535      6533      6536      6539
      6536      6539      6542      6543      6536      6539      6542      6544
      6536      6539      6542      6545      6537      6536      6539      6540
      6537      6536      6539      6541      6537      6536      6539      6542
      6538      6536      6539      6540      6538      6536      6539      6541
      6538      6536      6539      6542      6539      6542      6545      6546
      6539      6542      6545      6547      6539      6542      6545      6548
      6540      6539      6542      6543      6540      6539      6542      6544
      6540      6539      6542      6545      6541      6539      6542      6543
      6541      6539      6542      6544      6541      6539      6542      6545
      6542      6545      6548      6549      6542      6545      6548      6550
      6542      6545      6548      6551      6543      6542      6545      6546
      6543      6542      6545      6547      6543      6542      6545      6548
      6544      6542      6545      6546      6544      6542      6545      6547
      6544      6542      6545      6548      6545      6548      6551      6552
      6545      6548      6551      6553      6545      6548      6551      6554
      6546      6545      6548      6549      6546      6545      6548      6550
      6546      6545      6548      6551      6547      6545      6548      6549
      6547      6545      6548      6550      6547      6545      6548      6551
      6548      6551      6554      6555      6548      6551      6554      6556
      6548      6551      6554      6557      6549      6548      6551      6552
      6549      6548      6551      6553      6549      6548      6551      6554
      6550      6548      6551      6552      6550      6548      6551      6553
      6550      6548      6551      6554      6551      6554      6557      6558
      6551      6554      6557      6559      6551      6554      6557      6560
      6552      6551      6554      6555      6552      6551      6554      6556
      6552      6551      6554      6557      6553      6551      6554      6555
      6553      6551      6554      6556      6553      6551      6554      6557
      6554      6557      6560      6561      6554      6557      6560      6562
      6554      6557      6560      6563      6555      6554      6557      6558
      6555      6554      6557      6559      6555      6554      6557      6560
      6556      6554      6557      6558      6556      6554      6557      6559
      6556      6554      6557      6560      6557      6560      6563      6564
      6557      6560      6563      6565      6557      6560      6563      6566
      6558      6557      6560      6561      6558      6557      6560      6562
      6558      6557      6560      6563      6559      6557      6560      6561
      6559      6557      6560      6562      6559      6557      6560      6563
      6561      6560      6563      6564      6561      6560      6563      6565
      6561      6560      6563      6566      6562      6560      6563      6564
      6562      6560      6563      6565      6562      6560      6563      6566
      6567      6568      6583      6584      6567      6568      6583      6585
      6567      6568      6583      6589      6568      6567      6571      6572
      6568      6567      6571      6573      6568      6567      6571      6574
      6568      6567      6575      6576      6568      6567      6575      6577
      6568      6567      6575      6578      6568      6567      6579      6580
      6568      6567      6579      6581      6568      6567      6579      6582
      6568      6583      6589      6586      6569      6568      6567      6571
      6569      6568      6567      6575      6569      6568      6567      6579
      6569      6568      6583      6584      6569      6568      6583      6585
      6569      6568      6583      6589      6570      6568      6567      6571
      6570      6568      6567      6575      6570      6568      6567      6579
      6570      6568      6583      6584      6570      6568      6583      6585
      6570      6568      6583      6589      6571      6567      6568      6583
      6571      6567      6575      6576      6571      6567      6575      6577
      6571      6567      6575      6578      6571      6567      6579      6580
      6571      6567      6579      6581      6571      6567      6579      6582
      6572      6571      6567      6575      6572      6571      6567      6579
      6573      6571      6567      6575      6573      6571      6567      6579
      6574      6571      6567      6575      6574      6571      6567      6579
      6575      6567      6568      6583      6575      6567      6579      6580
      6575      6567      6579      6581      6575      6567      6579      6582
      6576      6575      6567      6579      6577      6575      6567      6579
      6578      6575      6567      6579      6579      6567      6568      6583
      6583      6589      6586      6587      6583      6589      6586      6588
      6583      6589      6586      6590      6584      6583      6589      6586
      6585      6583      6589      6586      6586      6590      6591      6592
      6586      6590      6591      6593      6586      6590      6591      6594
      6587      6586      6590      6591      6588      6586      6590      6591
      6589      6586      6590      6591      6590      6591      6594      6595
      6590      6591      6594      6596      6590      6591      6594      6602
      6591      6594      6596      6597      6591      6594      6602      6603
      6591      6594      6602      6604      6591      6594      6602      6605
      6592      6591      6594      6595      6592      6591      6594      6596
      6592      6591      6594      6602      6593      6591      6594      6595
      6593      6591      6594      6596      6593      6591      6594      6602
      6594      6596      6597      6598      6594      6596      6597      6599
      6594      6602      6605      6606      6595      6594      6596      6597
      6595      6594      6602      6603      6595      6594      6602      6604
      6595      6594      6602      6605      6596      6594      6602      6603
      6596      6594      6602      6604      6596      6594      6602      6605
      6596      6597      6599      6600      6596      6597      6599      6601
      6596      6597      6599      6611      6597      6596      6594      6602
      6597      6599      6611      6612      6597      6599      6611      6613
      6597      6599      6611      6614      6598      6597      6599      6600
      6598      6597      6599      6601      6598      6597      6599      6611
      6599      6611      6614      6615      6599      6611      6614      6616
      6599      6611      6614      6617      6600      6599      6611      6612
      6600      6599      6611      6613      6600      6599      6611      6614
      6601      6599      6611      6612      6601      6599      6611      6613
      6601      6599      6611      6614      6602      6605      6606      6607
      6602      6605      6606      6608      6603      6602      6605      6606
      6604      6602      6605      6606      6605      6606      6608      6609
      6605      6606      6608      6610      6605      6606      6608      6658
      6606      6608      6658      6659      6606      6608      6658      6660
      6606      6608      6658      6661      6607      6606      6608      6609
      6607      6606      6608      6610      6607      6606      6608      6658
      6608      6658      6661      6662      6608      6658      6661      6663
      6608      6658      6661      6664      6609      6608      6658      6659
      6609      6608      6658      6660      6609      6608      6658      6661
      6610      6608      6658      6659      6610      6608      6658      6660
      6610      6608      6658      6661      6611      6614      6617      6618
      6611      6614      6617      6619      6611      6614      6617      6620
      6612      6611      6614      6615      6612      6611      6614      6616
      6612      6611      6614      6617      6613      6611      6614      6615
      6613      6611      6614      6616      6613      6611      6614      6617
      6614      6617      6620      6621      6614      6617      6620      6622
      6614      6617      6620      6623      6615      6614      6617      6618
      6615      6614      6617      6619      6615      6614      6617      6620
      6616      6614      6617      6618      6616      6614      6617      6619
      6616      6614      6617      6620      6617      6620      6623      6624
      6617      6620      6623      6625      6617      6620      6623      6626
      6618      6617      6620      6621      6618      6617      6620      6622
      6618      6617      6620      6623      6619      6617      6620      6621
      6619      6617      6620      6622      6619      6617      6620      6623
      6620      6623      6626      6627      6620      6623      6626      6628
      6620      6623      6626      6629      6621      6620      6623      6624
      6621      6620      6623      6625      6621      6620      6623      6626
      6622      6620      6623      6624      6622      6620      6623      6625
      6622      6620      6623      6626      6623      6626      6629      6630
      6623      6626      6629      6631      6624      6623      6626      6627
      6624      6623      6626      6628      6624      6623      6626      6629
      6625      6623      6626      6627      6625      6623      6626      6628
      6625      6623      6626      6629      6626      6629      6631      6632
      6626      6629      6631      6633      6627      6626      6629      6630
      6627      6626      6629      6631      6628      6626      6629      6630
      6628      6626      6629      6631      6629      6631      6633      6634
      6629      6631      6633      6635      6629      6631      6633      6636
      6630      6629      6631      6632      6630      6629      6631      6633
      6631      6633      6636      6637      6631      6633      6636      6638
      6631      6633      6636      6639      6632      6631      6633      6634
      6632      6631      6633      6635      6632      6631      6633      6636
      6633      6636      6639      6640      6633      6636      6639      6641
      6633      6636      6639      6642      6634      6633      6636      6637
      6634      6633      6636      6638      6634      6633      6636      6639
      6635      6633      6636      6637      6635      6633      6636      6638
      6635      6633      6636      6639      6636      6639      6642      6643
      6636      6639      6642      6644      6636      6639      6642      6645
      6637      6636      6639      6640      6637      6636      6639      6641
      6637      6636      6639      6642      6638      6636      6639      6640
      6638      6636      6639      6641      6638      6636      6639      6642
      6639      6642      6645      6646      6639      6642      6645      6647
      6639      6642      6645      6648      6640      6639      6642      6643
      6640      6639      6642      6644      6640      6639      6642      6645
      6641      6639      6642      6643      6641      6639      6642      6644
      6641      6639      6642      6645      6642      6645      6648      6649
      6642      6645      6648      6650      6642      6645      6648      6651
      6643      6642      6645      6646      6643      6642      6645      6647
      6643      6642      6645      6648      6644      6642      6645      6646
      6644      6642      6645      6647      6644      6642      6645      6648
      6645      6648      6651      6652      6645      6648      6651      6653
      6645      6648      6651      6654      6646      6645      6648      6649
      6646      6645      6648      6650      6646      6645      6648      6651
      6647      6645      6648      6649      6647      6645      6648      6650
      6647      6645      6648      6651      6648      6651      6654      6655
      6648      6651      6654      6656      6648      6651      6654      6657
      6649      6648      6651      6652      6649      6648      6651      6653
      6649      6648      6651      6654      6650      6648      6651      6652
      6650      6648      6651      6653      6650      6648      6651      6654
      6652      6651      6654      6655      6652      6651      6654      6656
      6652      6651      6654      6657      6653      6651      6654      6655
      6653      6651      6654      6656      6653      6651      6654      6657
      6658      6661      6664      6665      6658      6661      6664      6666
      6658      6661      6664      6667      6659      6658      6661      6662
      6659      6658      6661      6663      6659      6658      6661      6664
      6660      6658      6661      6662      6660      6658      6661      6663
      6660      6658      6661      6664      6661      6664      6667      6668
      6661      6664      6667      6669      6661      6664      6667      6670
      6662      6661      6664      6665      6662      6661      6664      6666
      6662      6661      6664      6667      6663      6661      6664      6665
      6663      6661      6664      6666      6663      6661      6664      6667
      6664      6667      6670      6671      6664      6667      6670      6672
      6664      6667      6670      6673      6665      6664      6667      6668
      6665      6664      6667      6669      6665      6664      6667      6670
      6666      6664      6667      6668      6666      6664      6667      6669
      6666      6664      6667      6670      6667      6670      6673      6674
      6667      6670      6673      6675      6667      6670      6673      6676
      6668      6667      6670      6671      6668      6667      6670      6672
      6668      6667      6670      6673      6669      6667      6670      6671
      6669      6667      6670      6672      6669      6667      6670      6673
      6670      6673      6676      6677      6670      6673      6676      6678
      6670      6673      6676      6679      6671      6670      6673      6674
      6671      6670      6673      6675      6671      6670      6673      6676
      6672      6670      6673      6674      6672      6670      6673      6675
      6672      6670      6673      6676      6673      6676      6679      6680
      6673      6676      6679      6681      6673      6676      6679      6682
      6674      6673      6676      6677      6674      6673      6676      6678
      6674      6673      6676      6679      6675      6673      6676      6677
      6675      6673      6676      6678      6675      6673      6676      6679
      6676      6679      6682      6683      6676      6679      6682      6684
      6676      6679      6682      6685      6677      6676      6679      6680
      6677      6676      6679      6681      6677      6676      6679      6682
      6678      6676      6679      6680      6678      6676      6679      6681
      6678      6676      6679      6682      6679      6682      6685      6686
      6679      6682      6685      6687      6679      6682      6685      6688
      6680      6679      6682      6683      6680      6679      6682      6684
      6680      6679      6682      6685      6681      6679      6682      6683
      6681      6679      6682      6684      6681      6679      6682      6685
      6682      6685      6688      6689      6682      6685      6688      6690
      6682      6685      6688      6691      6683      6682      6685      6686
      6683      6682      6685      6687      6683      6682      6685      6688
      6684      6682      6685      6686      6684      6682      6685      6687
      6684      6682      6685      6688      6685      6688      6691      6692
      6685      6688      6691      6693      6685      6688      6691      6694
      6686      6685      6688      6689      6686      6685      6688      6690
      6686      6685      6688      6691      6687      6685      6688      6689
      6687      6685      6688      6690      6687      6685      6688      6691
      6688      6691      6694      6695      6688      6691      6694      6696
      6688      6691      6694      6697      6689      6688      6691      6692
      6689      6688      6691      6693      6689      6688      6691      6694
      6690      6688      6691      6692      6690      6688      6691      6693
      6690      6688      6691      6694      6691      6694      6697      6698
      6691      6694      6697      6699      6691      6694      6697      6700
      6692      6691      6694      6695      6692      6691      6694      6696
      6692      6691      6694      6697      6693      6691      6694      6695
      6693      6691      6694      6696      6693      6691      6694      6697
      6695      6694      6697      6698      6695      6694      6697      6699
      6695      6694      6697      6700      6696      6694      6697      6698
      6696      6694      6697      6699      6696      6694      6697      6700
      6701      6702      6717      6718      6701      6702      6717      6719
      6701      6702      6717      6723      6702      6701      6705      6706
      6702      6701      6705      6707      6702      6701      6705      6708
      6702      6701      6709      6710      6702      6701      6709      6711
      6702      6701      6709      6712      6702      6701      6713      6714
      6702      6701      6713      6715      6702      6701      6713      6716
      6702      6717      6723      6720      6703      6702      6701      6705
      6703      6702      6701      6709      6703      6702      6701      6713
      6703      6702      6717      6718      6703      6702      6717      6719
      6703      6702      6717      6723      6704      6702      6701      6705
      6704      6702      6701      6709      6704      6702      6701      6713
      6704      6702      6717      6718      6704      6702      6717      6719
      6704      6702      6717      6723      6705      6701      6702      6717
      6705      6701      6709      6710      6705      6701      6709      6711
      6705      6701      6709      6712      6705      6701      6713      6714
      6705      6701      6713      6715      6705      6701      6713      6716
      6706      6705      6701      6709      6706      6705      6701      6713
      6707      6705      6701      6709      6707      6705      6701      6713
      6708      6705      6701      6709      6708      6705      6701      6713
      6709      6701      6702      6717      6709      6701      6713      6714
      6709      6701      6713      6715      6709      6701      6713      6716
      6710      6709      6701      6713      6711      6709      6701      6713
      6712      6709      6701      6713      6713      6701      6702      6717
      6717      6723      6720      6721      6717      6723      6720      6722
      6717      6723      6720      6724      6718      6717      6723      6720
      6719      6717      6723      6720      6720      6724      6725      6726
      6720      6724      6725      6727      6720      6724      6725      6728
      6721      6720      6724      6725      6722      6720      6724      6725
      6723      6720      6724      6725      6724      6725      6728      6729
      6724      6725      6728      6730      6724      6725      6728      6736
      6725      6728      6730      6731      6725      6728      6736      6737
      6725      6728      6736      6738      6725      6728      6736      6739
      6726      6725      6728      6729      6726      6725      6728      6730
      6726      6725      6728      6736      6727      6725      6728      6729
      6727      6725      6728      6730      6727      6725      6728      6736
      6728      6730      6731      6732      6728      6730      6731      6733
      6728      6736      6739      6740      6729      6728      6730      6731
      6729      6728      6736      6737      6729      6728      6736      6738
      6729      6728      6736      6739      6730      6728      6736      6737
      6730      6728      6736      6738      6730      6728      6736      6739
      6730      6731      6733      6734      6730      6731      6733      6735
      6730      6731      6733      6745      6731      6730      6728      6736
      6731      6733      6745      6746      6731      6733      6745      6747
      6731      6733      6745      6748      6732      6731      6733      6734
      6732      6731      6733      6735      6732      6731      6733      6745
      6733      6745      6748      6749      6733      6745      6748      6750
      6733      6745      6748      6751      6734      6733      6745      6746
      6734      6733      6745      6747      6734      6733      6745      6748
      6735      6733      6745      6746      6735      6733      6745      6747
      6735      6733      6745      6748      6736      6739      6740      6741
      6736      6739      6740      6742      6737      6736      6739      6740
      6738      6736      6739      6740      6739      6740      6742      6743
      6739      6740      6742      6744      6739      6740      6742      6792
      6740      6742      6792      6793      6740      6742      6792      6794
      6740      6742      6792      6795      6741      6740      6742      6743
      6741      6740      6742      6744      6741      6740      6742      6792
      6742      6792      6795      6796      6742      6792      6795      6797
      6742      6792      6795      6798      6743      6742      6792      6793
      6743      6742      6792      6794      6743      6742      6792      6795
      6744      6742      6792      6793      6744      6742      6792      6794
      6744      6742      6792      6795      6745      6748      6751      6752
      6745      6748      6751      6753      6745      6748      6751      6754
      6746      6745      6748      6749      6746      6745      6748      6750
      6746      6745      6748      6751      6747      6745      6748      6749
      6747      6745      6748      6750      6747      6745      6748      6751
      6748      6751      6754      6755      6748      6751      6754      6756
      6748      6751      6754      6757      6749      6748      6751      6752
      6749      6748      6751      6753      6749      6748      6751      6754
      6750      6748      6751      6752      6750      6748      6751      6753
      6750      6748      6751      6754      6751      6754      6757      6758
      6751      6754      6757      6759      6751      6754      6757      6760
      6752      6751      6754      6755      6752      6751      6754      6756
      6752      6751      6754      6757      6753      6751      6754      6755
      6753      6751      6754      6756      6753      6751      6754      6757
      6754      6757      6760      6761      6754      6757      6760      6762
      6754      6757      6760      6763      6755      6754      6757      6758
      6755      6754      6757      6759      6755      6754      6757      6760
      6756      6754      6757      6758      6756      6754      6757      6759
      6756      6754      6757      6760      6757      6760      6763      6764
      6757      6760      6763      6765      6758      6757      6760      6761
      6758      6757      6760      6762      6758      6757      6760      6763
      6759      6757      6760      6761      6759      6757      6760      6762
      6759      6757      6760      6763      6760      6763      6765      6766
      6760      6763      6765      6767      6761      6760      6763      6764
      6761      6760      6763      6765      6762      6760      6763      6764
      6762      6760      6763      6765      6763      6765      6767      6768
      6763      6765      6767      6769      6763      6765      6767      6770
      6764      6763      6765      6766      6764      6763      6765      6767
      6765      6767      6770      6771      6765      6767      6770      6772
      6765      6767      6770      6773      6766      6765      6767      6768
      6766      6765      6767      6769      6766      6765      6767      6770
      6767      6770      6773      6774      6767      6770      6773      6775
      6767      6770      6773      6776      6768      6767      6770      6771
      6768      6767      6770      6772      6768      6767      6770      6773
      6769      6767      6770      6771      6769      6767      6770      6772
      6769      6767      6770      6773      6770      6773      6776      6777
      6770      6773      6776      6778      6770      6773      6776      6779
      6771      6770      6773      6774      6771      6770      6773      6775
      6771      6770      6773      6776      6772      6770      6773      6774
      6772      6770      6773      6775      6772      6770      6773      6776
      6773      6776      6779      6780      6773      6776      6779      6781
      6773      6776      6779      6782      6774      6773      6776      6777
      6774      6773      6776      6778      6774      6773      6776      6779
      6775      6773      6776      6777      6775      6773      6776      6778
      6775      6773      6776      6779      6776      6779      6782      6783
      6776      6779      6782      6784      6776      6779      6782      6785
      6777      6776      6779      6780      6777      6776      6779      6781
      6777      6776      6779      6782      6778      6776      6779      6780
      6778      6776      6779      6781      6778      6776      6779      6782
      6779      6782      6785      6786      6779      6782      6785      6787
      6779      6782      6785      6788      6780      6779      6782      6783
      6780      6779      6782      6784      6780      6779      6782      6785
      6781      6779      6782      6783      6781      6779      6782      6784
      6781      6779      6782      6785      6782      6785      6788      6789
      6782      6785      6788      6790      6782      6785      6788      6791
      6783      6782      6785      6786      6783      6782      6785      6787
      6783      6782      6785      6788      6784      6782      6785      6786
      6784      6782      6785      6787      6784      6782      6785      6788
      6786      6785      6788      6789      6786      6785      6788      6790
      6786      6785      6788      6791      6787      6785      6788      6789
      6787      6785      6788      6790      6787      6785      6788      6791
      6792      6795      6798      6799      6792      6795      6798      6800
      6792      6795      6798      6801      6793      6792      6795      6796
      6793      6792      6795      6797      6793      6792      6795      6798
      6794      6792      6795      6796      6794      6792      6795      6797
      6794      6792      6795      6798      6795      6798      6801      6802
      6795      6798      6801      6803      6795      6798      6801      6804
      6796      6795      6798      6799      6796      6795      6798      6800
      6796      6795      6798      6801      6797      6795      6798      6799
      6797      6795      6798      6800      6797      6795      6798      6801
      6798      6801      6804      6805      6798      6801      6804      6806
      6798      6801      6804      6807      6799      6798      6801      6802
      6799      6798      6801      6803      6799      6798      6801      6804
      6800      6798      6801      6802      6800      6798      6801      6803
      6800      6798      6801      6804      6801      6804      6807      6808
      6801      6804      6807      6809      6801      6804      6807      6810
      6802      6801      6804      6805      6802      6801      6804      6806
      6802      6801      6804      6807      6803      6801      6804      6805
      6803      6801      6804      6806      6803      6801      6804      6807
      6804      6807      6810      6811      6804      6807      6810      6812
      6804      6807      6810      6813      6805      6804      6807      6808
      6805      6804      6807      6809      6805      6804      6807      6810
      6806      6804      6807      6808      6806      6804      6807      6809
      6806      6804      6807      6810      6807      6810      6813      6814
      6807      6810      6813      6815      6807      6810      6813      6816
      6808      6807      6810      6811      6808      6807      6810      6812
      6808      6807      6810      6813      6809      6807      6810      6811
      6809      6807      6810      6812      6809      6807      6810      6813
      6810      6813      6816      6817      6810      6813      6816      6818
      6810      6813      6816      6819      6811      6810      6813      6814
      6811      6810      6813      6815      6811      6810      6813      6816
      6812      6810      6813      6814      6812      6810      6813      6815
      6812      6810      6813      6816      6813      6816      6819      6820
      6813      6816      6819      6821      6813      6816      6819      6822
      6814      6813      6816      6817      6814      6813      6816      6818
      6814      6813      6816      6819      6815      6813      6816      6817
      6815      6813      6816      6818      6815      6813      6816      6819
      6816      6819      6822      6823      6816      6819      6822      6824
      6816      6819      6822      6825      6817      6816      6819      6820
      6817      6816      6819      6821      6817      6816      6819      6822
      6818      6816      6819      6820      6818      6816      6819      6821
      6818      6816      6819      6822      6819      6822      6825      6826
      6819      6822      6825      6827      6819      6822      6825      6828
      6820      6819      6822      6823      6820      6819      6822      6824
      6820      6819      6822      6825      6821      6819      6822      6823
      6821      6819      6822      6824      6821      6819      6822      6825
      6822      6825      6828      6829      6822      6825      6828      6830
      6822      6825      6828      6831      6823      6822      6825      6826
      6823      6822      6825      6827      6823      6822      6825      6828
      6824      6822      6825      6826      6824      6822      6825      6827
      6824      6822      6825      6828      6825      6828      6831      6832
      6825      6828      6831      6833      6825      6828      6831      6834
      6826      6825      6828      6829      6826      6825      6828      6830
      6826      6825      6828      6831      6827      6825      6828      6829
      6827      6825      6828      6830      6827      6825      6828      6831
      6829      6828      6831      6832      6829      6828      6831      6833
      6829      6828      6831      6834      6830      6828      6831      6832
      6830      6828      6831      6833      6830      6828      6831      6834
      6835      6836      6851      6852      6835      6836      6851      6853
      6835      6836      6851      6857      6836      6835      6839      6840
      6836      6835      6839      6841      6836      6835      6839      6842
      6836      6835      6843      6844      6836      6835      6843      6845
      6836      6835      6843      6846      6836      6835      6847      6848
      6836      6835      6847      6849      6836      6835      6847      6850
      6836      6851      6857      6854      6837      6836      6835      6839
      6837      6836      6835      6843      6837      6836      6835      6847
      6837      6836      6851      6852      6837      6836      6851      6853
      6837      6836      6851      6857      6838      6836      6835      6839
      6838      6836      6835      6843      6838      6836      6835      6847
      6838      6836      6851      6852      6838      6836      6851      6853
      6838      6836      6851      6857      6839      6835      6836      6851
      6839      6835      6843      6844      6839      6835      6843      6845
      6839      6835      6843      6846      6839      6835      6847      6848
      6839      6835      6847      6849      6839      6835      6847      6850
      6840      6839      6835      6843      6840      6839      6835      6847
      6841      6839      6835      6843      6841      6839      6835      6847
      6842      6839      6835      6843      6842      6839      6835      6847
      6843      6835      6836      6851      6843      6835      6847      6848
      6843      6835      6847      6849      6843      6835      6847      6850
      6844      6843      6835      6847      6845      6843      6835      6847
      6846      6843      6835      6847      6847      6835      6836      6851
      6851      6857      6854      6855      6851      6857      6854      6856
      6851      6857      6854      6858      6852      6851      6857      6854
      6853      6851      6857      6854      6854      6858      6859      6860
      6854      6858      6859      6861      6854      6858      6859      6862
      6855      6854      6858      6859      6856      6854      6858      6859
      6857      6854      6858      6859      6858      6859      6862      6863
      6858      6859      6862      6864      6858      6859      6862      6870
      6859      6862      6864      6865      6859      6862      6870      6871
      6859      6862      6870      6872      6859      6862      6870      6873
      6860      6859      6862      6863      6860      6859      6862      6864
      6860      6859      6862      6870      6861      6859      6862      6863
      6861      6859      6862      6864      6861      6859      6862      6870
      6862      6864      6865      6866      6862      6864      6865      6867
      6862      6870      6873      6874      6863      6862      6864      6865
      6863      6862      6870      6871      6863      6862      6870      6872
      6863      6862      6870      6873      6864      6862      6870      6871
      6864      6862      6870      6872      6864      6862      6870      6873
      6864      6865      6867      6868      6864      6865      6867      6869
      6864      6865      6867      6879      6865      6864      6862      6870
      6865      6867      6879      6880      6865      6867      6879      6881
      6865      6867      6879      6882      6866      6865      6867      6868
      6866      6865      6867      6869      6866      6865      6867      6879
      6867      6879      6882      6883      6867      6879      6882      6884
      6867      6879      6882      6885      6868      6867      6879      6880
      6868      6867      6879      6881      6868      6867      6879      6882
      6869      6867      6879      6880      6869      6867      6879      6881
      6869      6867      6879      6882      6870      6873      6874      6875
      6870      6873      6874      6876      6871      6870      6873      6874
      6872      6870      6873      6874      6873      6874      6876      6877
      6873      6874      6876      6878      6873      6874      6876      6926
      6874      6876      6926      6927      6874      6876      6926      6928
      6874      6876      6926      6929      6875      6874      6876      6877
      6875      6874      6876      6878      6875      6874      6876      6926
      6876      6926      6929      6930      6876      6926      6929      6931
      6876      6926      6929      6932      6877      6876      6926      6927
      6877      6876      6926      6928      6877      6876      6926      6929
      6878      6876      6926      6927      6878      6876      6926      6928
      6878      6876      6926      6929      6879      6882      6885      6886
      6879      6882      6885      6887      6879      6882      6885      6888
      6880      6879      6882      6883      6880      6879      6882      6884
      6880      6879      6882      6885      6881      6879      6882      6883
      6881      6879      6882      6884      6881      6879      6882      6885
      6882      6885      6888      6889      6882      6885      6888      6890
      6882      6885      6888      6891      6883      6882      6885      6886
      6883      6882      6885      6887      6883      6882      6885      6888
      6884      6882      6885      6886      6884      6882      6885      6887
      6884      6882      6885      6888      6885      6888      6891      6892
      6885      6888      6891      6893      6885      6888      6891      6894
      6886      6885      6888      6889      6886      6885      6888      6890
      6886      6885      6888      6891      6887      6885      6888      6889
      6887      6885      6888      6890      6887      6885      6888      6891
      6888      6891      6894      6895      6888      6891      6894      6896
      6888      6891      6894      6897      6889      6888      6891      6892
      6889      6888      6891      6893      6889      6888      6891      6894
      6890      6888      6891      6892      6890      6888      6891      6893
      6890      6888      6891      6894      6891      6894      6897      6898
      6891      6894      6897      6899      6892      6891      6894      6895
      6892      6891      6894      6896      6892      6891      6894      6897
      6893      6891      6894      6895      6893      6891      6894      6896
      6893      6891      6894      6897      6894      6897      6899      6900
      6894      6897      6899      6901      6895      6894      6897      6898
      6895      6894      6897      6899      6896      6894      6897      6898
      6896      6894      6897      6899      6897      6899      6901      6902
      6897      6899      6901      6903      6897      6899      6901      6904
      6898      6897      6899      6900      6898      6897      6899      6901
      6899      6901      6904      6905      6899      6901      6904      6906
      6899      6901      6904      6907      6900      6899      6901      6902
      6900      6899      6901      6903      6900      6899      6901      6904
      6901      6904      6907      6908      6901      6904      6907      6909
      6901      6904      6907      6910      6902      6901      6904      6905
      6902      6901      6904      6906      6902      6901      6904      6907
      6903      6901      6904      6905      6903      6901      6904      6906
      6903      6901      6904      6907      6904      6907      6910      6911
      6904      6907      6910      6912      6904      6907      6910      6913
      6905      6904      6907      6908      6905      6904      6907      6909
      6905      6904      6907      6910      6906      6904      6907      6908
      6906      6904      6907      6909      6906      6904      6907      6910
      6907      6910      6913      6914      6907      6910      6913      6915
      6907      6910      6913      6916      6908      6907      6910      6911
      6908      6907      6910      6912      6908      6907      6910      6913
      6909      6907      6910      6911      6909      6907      6910      6912
      6909      6907      6910      6913      6910      6913      6916      6917
      6910      6913      6916      6918      6910      6913      6916      6919
      6911      6910      6913      6914      6911      6910      6913      6915
      6911      6910      6913      6916      6912      6910      6913      6914
      6912      6910      6913      6915      6912      6910      6913      6916
      6913      6916      6919      6920      6913      6916      6919      6921
      6913      6916      6919      6922      6914      6913      6916      6917
      6914      6913      6916      6918      6914      6913      6916      6919
      6915      6913      6916      6917      6915      6913      6916      6918
      6915      6913      6916      6919      6916      6919      6922      6923
      6916      6919      6922      6924      6916      6919      6922      6925
      6917      6916      6919      6920      6917      6916      6919      6921
      6917      6916      6919      6922      6918      6916      6919      6920
      6918      6916      6919      6921      6918      6916      6919      6922
      6920      6919      6922      6923      6920      6919      6922      6924
      6920      6919      6922      6925      6921      6919      6922      6923
      6921      6919      6922      6924      6921      6919      6922      6925
      6926      6929      6932      6933      6926      6929      6932      6934
      6926      6929      6932      6935      6927      6926      6929      6930
      6927      6926      6929      6931      6927      6926      6929      6932
      6928      6926      6929      6930      6928      6926      6929      6931
      6928      6926      6929      6932      6929      6932      6935      6936
      6929      6932      6935      6937      6929      6932      6935      6938
      6930      6929      6932      6933      6930      6929      6932      6934
      6930      6929      6932      6935      6931      6929      6932      6933
      6931      6929      6932      6934      6931      6929      6932      6935
      6932      6935      6938      6939      6932      6935      6938      6940
      6932      6935      6938      6941      6933      6932      6935      6936
      6933      6932      6935      6937      6933      6932      6935      6938
      6934      6932      6935      6936      6934      6932      6935      6937
      6934      6932      6935      6938      6935      6938      6941      6942
      6935      6938      6941      6943      6935      6938      6941      6944
      6936      6935      6938      6939      6936      6935      6938      6940
      6936      6935      6938      6941      6937      6935      6938      6939
      6937      6935      6938      6940      6937      6935      6938      6941
      6938      6941      6944      6945      6938      6941      6944      6946
      6938      6941      6944      6947      6939      6938      6941      6942
      6939      6938      6941      6943      6939      6938      6941      6944
      6940      6938      6941      6942      6940      6938      6941      6943
      6940      6938      6941      6944      6941      6944      6947      6948
      6941      6944      6947      6949      6941      6944      6947      6950
      6942      6941      6944      6945      6942      6941      6944      6946
      6942      6941      6944      6947      6943      6941      6944      6945
      6943      6941      6944      6946      6943      6941      6944      6947
      6944      6947      6950      6951      6944      6947      6950      6952
      6944      6947      6950      6953      6945      6944      6947      6948
      6945      6944      6947      6949      6945      6944      6947      6950
      6946      6944      6947      6948      6946      6944      6947      6949
      6946      6944      6947      6950      6947      6950      6953      6954
      6947      6950      6953      6955      6947      6950      6953      6956
      6948      6947      6950      6951      6948      6947      6950      6952
      6948      6947      6950      6953      6949      6947      6950      6951
      6949      6947      6950      6952      6949      6947      6950      6953
      6950      6953      6956      6957      6950      6953      6956      6958
      6950      6953      6956      6959      6951      6950      6953      6954
      6951      6950      6953      6955      6951      6950      6953      6956
      6952      6950      6953      6954      6952      6950      6953      6955
      6952      6950      6953      6956      6953      6956      6959      6960
      6953      6956      6959      6961      6953      6956      6959      6962
      6954      6953      6956      6957      6954      6953      6956      6958
      6954      6953      6956      6959      6955      6953      6956      6957
      6955      6953      6956      6958      6955      6953      6956      6959
      6956      6959      6962      6963      6956      6959      6962      6964
      6956      6959      6962      6965      6957      6956      6959      6960
      6957      6956      6959      6961      6957      6956      6959      6962
      6958      6956      6959      6960      6958      6956      6959      6961
      6958      6956      6959      6962      6959      6962      6965      6966
      6959      6962      6965      6967      6959      6962      6965      6968
      6960      6959      6962      6963      6960      6959      6962      6964
      6960      6959      6962      6965      6961      6959      6962      6963
      6961      6959      6962      6964      6961      6959      6962      6965
      6963      6962      6965      6966      6963      6962      6965      6967
      6963      6962      6965      6968      6964      6962      6965      6966
      6964      6962      6965      6967      6964      6962      6965      6968
      6969      6970      6985      6986      6969      6970      6985      6987
      6969      6970      6985      6991      6970      6969      6973      6974
      6970      6969      6973      6975      6970      6969      6973      6976
      6970      6969      6977      6978      6970      6969      6977      6979
      6970      6969      6977      6980      6970      6969      6981      6982
      6970      6969      6981      6983      6970      6969      6981      6984
      6970      6985      6991      6988      6971      6970      6969      6973
      6971      6970      6969      6977      6971      6970      6969      6981
      6971      6970      6985      6986      6971      6970      6985      6987
      6971      6970      6985      6991      6972      6970      6969      6973
      6972      6970      6969      6977      6972      6970      6969      6981
      6972      6970      6985      6986      6972      6970      6985      6987
      6972      6970      6985      6991      6973      6969      6970      6985
      6973      6969      6977      6978      6973      6969      6977      6979
      6973      6969      6977      6980      6973      6969      6981      6982
      6973      6969      6981      6983      6973      6969      6981      6984
      6974      6973      6969      6977      6974      6973      6969      6981
      6975      6973      6969      6977      6975      6973      6969      6981
      6976      6973      6969      6977      6976      6973      6969      6981
      6977      6969      6970      6985      6977      6969      6981      6982
      6977      6969      6981      6983      6977      6969      6981      6984
      6978      6977      6969      6981      6979      6977      6969      6981
      6980      6977      6969      6981      6981      6969      6970      6985
      6985      6991      6988      6989      6985      6991      6988      6990
      6985      6991      6988      6992      6986      6985      6991      6988
      6987      6985      6991      6988      6988      6992      6993      6994
      6988      6992      6993      6995      6988      6992      6993      6996
      6989      6988      6992      6993      6990      6988      6992      6993
      6991      6988      6992      6993      6992      6993      6996      6997
      6992      6993      6996      6998      6992      6993      6996      7004
      6993      6996      6998      6999      6993      6996      7004      7005
      6993      6996      7004      7006      6993      6996      7004      7007
      6994      6993      6996      6997      6994      6993      6996      6998
      6994      6993      6996      7004      6995      6993      6996      6997
      6995      6993      6996      6998      6995      6993      6996      7004
      6996      6998      6999      7000      6996      6998      6999      7001
      6996      7004      7007      7008      6997      6996      6998      6999
      6997      6996      7004      7005      6997      6996      7004      7006
      6997      6996      7004      7007      6998      6996      7004      7005
      6998      6996      7004      7006      6998      6996      7004      7007
      6998      6999      7001      7002      6998      6999      7001      7003
      6998      6999      7001      7013      6999      6998      6996      7004
      6999      7001      7013      7014      6999      7001      7013      7015
      6999      7001      7013      7016      7000      6999      7001      7002
      7000      6999      7001      7003      7000      6999      7001      7013
      7001      7013      7016      7017      7001      7013      7016      7018
      7001      7013      7016      7019      7002      7001      7013      7014
      7002      7001      7013      7015      7002      7001      7013      7016
      7003      7001      7013      7014      7003      7001      7013      7015
      7003      7001      7013      7016      7004      7007      7008      7009
      7004      7007      7008      7010      7005      7004      7007      7008
      7006      7004      7007      7008      7007      7008      7010      7011
      7007      7008      7010      7012      7007      7008      7010      7060
      7008      7010      7060      7061      7008      7010      7060      7062
      7008      7010      7060      7063      7009      7008      7010      7011
      7009      7008      7010      7012      7009      7008      7010      7060
      7010      7060      7063      7064      7010      7060      7063      7065
      7010      7060      7063      7066      7011      7010      7060      7061
      7011      7010      7060      7062      7011      7010      7060      7063
      7012      7010      7060      7061      7012      7010      7060      7062
      7012      7010      7060      7063      7013      7016      7019      7020
      7013      7016      7019      7021      7013      7016      7019      7022
      7014      7013      7016      7017      7014      7013      7016      7018
      7014      7013      7016      7019      7015      7013      7016      7017
      7015      7013      7016      7018      7015      7013      7016      7019
      7016      7019      7022      7023      7016      7019      7022      7024
      7016      7019      7022      7025      7017      7016      7019      7020
      7017      7016      7019      7021      7017      7016      7019      7022
      7018      7016      7019      7020      7018      7016      7019      7021
      7018      7016      7019      7022      7019      7022      7025      7026
      7019      7022      7025      7027      7019      7022      7025      7028
      7020      7019      7022      7023      7020      7019      7022      7024
      7020      7019      7022      7025      7021      7019      7022      7023
      7021      7019      7022      7024      7021      7019      7022      7025
      7022      7025      7028      7029      7022      7025      7028      7030
      7022      7025      7028      7031      7023      7022      7025      7026
      7023      7022      7025      7027      7023      7022      7025      7028
      7024      7022      7025      7026      7024      7022      7025      7027
      7024      7022      7025      7028      7025      7028      7031      7032
      7025      7028      7031      7033      7026      7025      7028      7029
      7026      7025      7028      7030      7026      7025      7028      7031
      7027      7025      7028      7029      7027      7025      7028      7030
      7027      7025      7028      7031      7028      7031      7033      7034
      7028      7031      7033      7035      7029      7028      7031      7032
      7029      7028      7031      7033      7030      7028      7031      7032
      7030      7028      7031      7033      7031      7033      7035      7036
      7031      7033      7035      7037      7031      7033      7035      7038
      7032      7031      7033      7034      7032      7031      7033      7035
      7033      7035      7038      7039      7033      7035      7038      7040
      7033      7035      7038      7041      7034      7033      7035      7036
      7034      7033      7035      7037      7034      7033      7035      7038
      7035      7038      7041      7042      7035      7038      7041      7043
      7035      7038      7041      7044      7036      7035      7038      7039
      7036      7035      7038      7040      7036      7035      7038      7041
      7037      7035      7038      7039      7037      7035      7038      7040
      7037      7035      7038      7041      7038      7041      7044      7045
      7038      7041      7044      7046      7038      7041      7044      7047
      7039      7038      7041      7042      7039      7038      7041      7043
      7039      7038      7041      7044      7040      7038      7041      7042
      7040      7038      7041      7043      7040      7038      7041      7044
      7041      7044      7047      7048      7041      7044      7047      7049
      7041      7044      7047      7050      7042      7041      7044      7045
      7042      7041      7044      7046      7042      7041      7044      7047
      7043      7041      7044      7045      7043      7041      7044      7046
      7043      7041      7044      7047      7044      7047      7050      7051
      7044      7047      7050      7052      7044      7047      7050      7053
      7045      7044      7047      7048      7045      7044      7047      7049
      7045      7044      7047      7050      7046      7044      7047      7048
      7046      7044      7047      7049      7046      7044      7047      7050
      7047      7050      7053      7054      7047      7050      7053      7055
      7047      7050      7053      7056      7048      7047      7050      7051
      7048      7047      7050      7052      7048      7047      7050      7053
      7049      7047      7050      7051      7049      7047      7050      7052
      7049      7047      7050      7053      7050      7053      7056      7057
      7050      7053      7056      7058      7050      7053      7056      7059
      7051      7050      7053      7054      7051      7050      7053      7055
      7051      7050      7053      7056      7052      7050      7053      7054
      7052      7050      7053      7055      7052      7050      7053      7056
      7054      7053      7056      7057      7054      7053      7056      7058
      7054      7053      7056      7059      7055      7053      7056      7057
      7055      7053      7056      7058      7055      7053      7056      7059
      7060      7063      7066      7067      7060      7063      7066      7068
      7060      7063      7066      7069      7061      7060      7063      7064
      7061      7060      7063      7065      7061      7060      7063      7066
      7062      7060      7063      7064      7062      7060      7063      7065
      7062      7060      7063      7066      7063      7066      7069      7070
      7063      7066      7069      7071      7063      7066      7069      7072
      7064      7063      7066      7067      7064      7063      7066      7068
      7064      7063      7066      7069      7065      7063      7066      7067
      7065      7063      7066      7068      7065      7063      7066      7069
      7066      7069      7072      7073      7066      7069      7072      7074
      7066      7069      7072      7075      7067      7066      7069      7070
      7067      7066      7069      7071      7067      7066      7069      7072
      7068      7066      7069      7070      7068      7066      7069      7071
      7068      7066      7069      7072      7069      7072      7075      7076
      7069      7072      7075      7077      7069      7072      7075      7078
      7070      7069      7072      7073      7070      7069      7072      7074
      7070      7069      7072      7075      7071      7069      7072      7073
      7071      7069      7072      7074      7071      7069      7072      7075
      7072      7075      7078      7079      7072      7075      7078      7080
      7072      7075      7078      7081      7073      7072      7075      7076
      7073      7072      7075      7077      7073      7072      7075      7078
      7074      7072      7075      7076      7074      7072      7075      7077
      7074      7072      7075      7078      7075      7078      7081      7082
      7075      7078      7081      7083      7075      7078      7081      7084
      7076      7075      7078      7079      7076      7075      7078      7080
      7076      7075      7078      7081      7077      7075      7078      7079
      7077      7075      7078      7080      7077      7075      7078      7081
      7078      7081      7084      7085      7078      7081      7084      7086
      7078      7081      7084      7087      7079      7078      7081      7082
      7079      7078      7081      7083      7079      7078      7081      7084
      7080      7078      7081      7082      7080      7078      7081      7083
      7080      7078      7081      7084      7081      7084      7087      7088
      7081      7084      7087      7089      7081      7084      7087      7090
      7082      7081      7084      7085      7082      7081      7084      7086
      7082      7081      7084      7087      7083      7081      7084      7085
      7083      7081      7084      7086      7083      7081      7084      7087
      7084      7087      7090      7091      7084      7087      7090      7092
      7084      7087      7090      7093      7085      7084      7087      7088
      7085      7084      7087      7089      7085      7084      7087      7090
      7086      7084      7087      7088      7086      7084      7087      7089
      7086      7084      7087      7090      7087      7090      7093      7094
      7087      7090      7093      7095      7087      7090      7093      7096
      7088      7087      7090      7091      7088      7087      7090      7092
      7088      7087      7090      7093      7089      7087      7090      7091
      7089      7087      7090      7092      7089      7087      7090      7093
      7090      7093      7096      7097      7090      7093      7096      7098
      7090      7093      7096      7099      7091      7090      7093      7094
      7091      7090      7093      7095      7091      7090      7093      7096
      7092      7090      7093      7094      7092      7090      7093      7095
      7092      7090      7093      7096      7093      7096      7099      7100
      7093      7096      7099      7101      7093      7096      7099      7102
      7094      7093      7096      7097      7094      7093      7096      7098
      7094      7093      7096      7099      7095      7093      7096      7097
      7095      7093      7096      7098      7095      7093      7096      7099
      7097      7096      7099      7100      7097      7096      7099      7101
      7097      7096      7099      7102      7098      7096      7099      7100
      7098      7096      7099      7101      7098      7096      7099      7102
      7103      7104      7119      7120      7103      7104      7119      7121
      7103      7104      7119      7125      7104      7103      7107      7108
      7104      7103      7107      7109      7104      7103      7107      7110
      7104      7103      7111      7112      7104      7103      7111      7113
      7104      7103      7111      7114      7104      7103      7115      7116
      7104      7103      7115      7117      7104      7103      7115      7118
      7104      7119      7125      7122      7105      7104      7103      7107
      7105      7104      7103      7111      7105      7104      7103      7115
      7105      7104      7119      7120      7105      7104      7119      7121
      7105      7104      7119      7125      7106      7104      7103      7107
      7106      7104      7103      7111      7106      7104      7103      7115
      7106      7104      7119      7120      7106      7104      7119      7121
      7106      7104      7119      7125      7107      7103      7104      7119
      7107      7103      7111      7112      7107      7103      7111      7113
      7107      7103      7111      7114      7107      7103      7115      7116
      7107      7103      7115      7117      7107      7103      7115      7118
      7108      7107      7103      7111      7108      7107      7103      7115
      7109      7107      7103      7111      7109      7107      7103      7115
      7110      7107      7103      7111      7110      7107      7103      7115
      7111      7103      7104      7119      7111      7103      7115      7116
      7111      7103      7115      7117      7111      7103      7115      7118
      7112      7111      7103      7115      7113      7111      7103      7115
      7114      7111      7103      7115      7115      7103      7104      7119
      7119      7125      7122      7123      7119      7125      7122      7124
      7119      7125      7122      7126      7120      7119      7125      7122
      7121      7119      7125      7122      7122      7126      7127      7128
      7122      7126      7127      7129      7122      7126      7127      7130
      7123      7122      7126      7127      7124      7122      7126      7127
      7125      7122      7126      7127      7126      7127      7130      7131
      7126      7127      7130      7132      7126      7127      7130      7138
      7127      7130      7132      7133      7127      7130      7138      7139
      7127      7130      7138      7140      7127      7130      7138      7141
      7128      7127      7130      7131      7128      7127      7130      7132
      7128      7127      7130      7138      7129      7127      7130      7131
      7129      7127      7130      7132      7129      7127      7130      7138
      7130      7132      7133      7134      7130      7132      7133      7135
      7130      7138      7141      7142      7131      7130      7132      7133
      7131      7130      7138      7139      7131      7130      7138      7140
      7131      7130      7138      7141      7132      7130      7138      7139
      7132      7130      7138      7140      7132      7130      7138      7141
      7132      7133      7135      7136      7132      7133      7135      7137
      7132      7133      7135      7147      7133      7132      7130      7138
      7133      7135      7147      7148      7133      7135      7147      7149
      7133      7135      7147      7150      7134      7133      7135      7136
      7134      7133      7135      7137      7134      7133      7135      7147
      7135      7147      7150      7151      7135      7147      7150      7152
      7135      7147      7150      7153      7136      7135      7147      7148
      7136      7135      7147      7149      7136      7135      7147      7150
      7137      7135      7147      7148      7137      7135      7147      7149
      7137      7135      7147      7150      7138      7141      7142      7143
      7138      7141      7142      7144      7139      7138      7141      7142
      7140      7138      7141      7142      7141      7142      7144      7145
      7141      7142      7144      7146      7141      7142      7144      7194
      7142      7144      7194      7195      7142      7144      7194      7196
      7142      7144      7194      7197      7143      7142      7144      7145
      7143      7142      7144      7146      7143      7142      7144      7194
      7144      7194      7197      7198      7144      7194      7197      7199
      7144      7194      7197      7200      7145      7144      7194      7195
      7145      7144      7194      7196      7145      7144      7194      7197
      7146      7144      7194      7195      7146      7144      7194      7196
      7146      7144      7194      7197      7147      7150      7153      7154
      7147      7150      7153      7155      7147      7150      7153      7156
      7148      7147      7150      7151      7148      7147      7150      7152
      7148      7147      7150      7153      7149      7147      7150      7151
      7149      7147      7150      7152      7149      7147      7150      7153
      7150      7153      7156      7157      7150      7153      7156      7158
      7150      7153      7156      7159      7151      7150      7153      7154
      7151      7150      7153      7155      7151      7150      7153      7156
      7152      7150      7153      7154      7152      7150      7153      7155
      7152      7150      7153      7156      7153      7156      7159      7160
      7153      7156      7159      7161      7153      7156      7159      7162
      7154      7153      7156      7157      7154      7153      7156      7158
      7154      7153      7156      7159      7155      7153      7156      7157
      7155      7153      7156      7158      7155      7153      7156      7159
      7156      7159      7162      7163      7156      7159      7162      7164
      7156      7159      7162      7165      7157      7156      7159      7160
      7157      7156      7159      7161      7157      7156      7159      7162
      7158      7156      7159      7160      7158      7156      7159      7161
      7158      7156      7159      7162      7159      7162      7165      7166
      7159      7162      7165      7167      7160      7159      7162      7163
      7160      7159      7162      7164      7160      7159      7162      7165
      7161      7159      7162      7163      7161      7159      7162      7164
      7161      7159      7162      7165      7162      7165      7167      7168
      7162      7165      7167      7169      7163      7162      7165      7166
      7163      7162      7165      7167      7164      7162      7165      7166
      7164      7162      7165      7167      7165      7167      7169      7170
      7165      7167      7169      7171      7165      7167      7169      7172
      7166      7165      7167      7168      7166      7165      7167      7169
      7167      7169      7172      7173      7167      7169      7172      7174
      7167      7169      7172      7175      7168      7167      7169      7170
      7168      7167      7169      7171      7168      7167      7169      7172
      7169      7172      7175      7176      7169      7172      7175      7177
      7169      7172      7175      7178      7170      7169      7172      7173
      7170      7169      7172      7174      7170      7169      7172      7175
      7171      7169      7172      7173      7171      7169      7172      7174
      7171      7169      7172      7175      7172      7175      7178      7179
      7172      7175      7178      7180      7172      7175      7178      7181
      7173      7172      7175      7176      7173      7172      7175      7177
      7173      7172      7175      7178      7174      7172      7175      7176
      7174      7172      7175      7177      7174      7172      7175      7178
      7175      7178      7181      7182      7175      7178      7181      7183
      7175      7178      7181      7184      7176      7175      7178      7179
      7176      7175      7178      7180      7176      7175      7178      7181
      7177      7175      7178      7179      7177      7175      7178      7180
      7177      7175      7178      7181      7178      7181      7184      7185
      7178      7181      7184      7186      7178      7181      7184      7187
      7179      7178      7181      7182      7179      7178      7181      7183
      7179      7178      7181      7184      7180      7178      7181      7182
      7180      7178      7181      7183      7180      7178      7181      7184
      7181      7184      7187      7188      7181      7184      7187      7189
      7181      7184      7187      7190      7182      7181      7184      7185
      7182      7181      7184      7186      7182      7181      7184      7187
      7183      7181      7184      7185      7183      7181      7184      7186
      7183      7181      7184      7187      7184      7187      7190      7191
      7184      7187      7190      7192      7184      7187      7190      7193
      7185      7184      7187      7188      7185      7184      7187      7189
      7185      7184      7187      7190      7186      7184      7187      7188
      7186      7184      7187      7189      7186      7184      7187      7190
      7188      7187      7190      7191      7188      7187      7190      7192
      7188      7187      7190      7193      7189      7187      7190      7191
      7189      7187      7190      7192      7189      7187      7190      7193
      7194      7197      7200      7201      7194      7197      7200      7202
      7194      7197      7200      7203      7195      7194      7197      7198
      7195      7194      7197      7199      7195      7194      7197      7200
      7196      7194      7197      7198      7196      7194      7197      7199
      7196      7194      7197      7200      7197      7200      7203      7204
      7197      7200      7203      7205      7197      7200      7203      7206
      7198      7197      7200      7201      7198      7197      7200      7202
      7198      7197      7200      7203      7199      7197      7200      7201
      7199      7197      7200      7202      7199      7197      7200      7203
      7200      7203      7206      7207      7200      7203      7206      7208
      7200      7203      7206      7209      7201      7200      7203      7204
      7201      7200      7203      7205      7201      7200      7203      7206
      7202      7200      7203      7204      7202      7200      7203      7205
      7202      7200      7203      7206      7203      7206      7209      7210
      7203      7206      7209      7211      7203      7206      7209      7212
      7204      7203      7206      7207      7204      7203      7206      7208
      7204      7203      7206      7209      7205      7203      7206      7207
      7205      7203      7206      7208      7205      7203      7206      7209
      7206      7209      7212      7213      7206      7209      7212      7214
      7206      7209      7212      7215      7207      7206      7209      7210
      7207      7206      7209      7211      7207      7206      7209      7212
      7208      7206      7209      7210      7208      7206      7209      7211
      7208      7206      7209      7212      7209      7212      7215      7216
      7209      7212      7215      7217      7209      7212      7215      7218
      7210      7209      7212      7213      7210      7209      7212      7214
      7210      7209      7212      7215      7211      7209      7212      7213
      7211      7209      7212      7214      7211      7209      7212      7215
      7212      7215      7218      7219      7212      7215      7218      7220
      7212      7215      7218      7221      7213      7212      7215      7216
      7213      7212      7215      7217      7213      7212      7215      7218
      7214      7212      7215      7216      7214      7212      7215      7217
      7214      7212      7215      7218      7215      7218      7221      7222
      7215      7218      7221      7223      7215      7218      7221      7224
      7216      7215      7218      7219      7216      7215      7218      7220
      7216      7215      7218      7221      7217      7215      7218      7219
      7217      7215      7218      7220      7217      7215      7218      7221
      7218      7221      7224      7225      7218      7221      7224      7226
      7218      7221      7224      7227      7219      7218      7221      7222
      7219      7218      7221      7223      7219      7218      7221      7224
      7220      7218      7221      7222      7220      7218      7221      7223
      7220      7218      7221      7224      7221      7224      7227      7228
      7221      7224      7227      7229      7221      7224      7227      7230
      7222      7221      7224      7225      7222      7221      7224      7226
      7222      7221      7224      7227      7223      7221      7224      7225
      7223      7221      7224      7226      7223      7221      7224      7227
      7224      7227      7230      7231      7224      7227      7230      7232
      7224      7227      7230      7233      7225      7224      7227      7228
      7225      7224      7227      7229      7225      7224      7227      7230
      7226      7224      7227      7228      7226      7224      7227      7229
      7226      7224      7227      7230      7227      7230      7233      7234
      7227      7230      7233      7235      7227      7230      7233      7236
      7228      7227      7230      7231      7228      7227      7230      7232
      7228      7227      7230      7233      7229      7227      7230      7231
      7229      7227      7230      7232      7229      7227      7230      7233
      7231      7230      7233      7234      7231      7230      7233      7235
      7231      7230      7233      7236      7232      7230      7233      7234
      7232      7230      7233      7235      7232      7230      7233      7236
      7237      7238      7253      7254      7237      7238      7253      7255
      7237      7238      7253      7259      7238      7237      7241      7242
      7238      7237      7241      7243      7238      7237      7241      7244
      7238      7237      7245      7246      7238      7237      7245      7247
      7238      7237      7245      7248      7238      7237      7249      7250
      7238      7237      7249      7251      7238      7237      7249      7252
      7238      7253      7259      7256      7239      7238      7237      7241
      7239      7238      7237      7245      7239      7238      7237      7249
      7239      7238      7253      7254      7239      7238      7253      7255
      7239      7238      7253      7259      7240      7238      7237      7241
      7240      7238      7237      7245      7240      7238      7237      7249
      7240      7238      7253      7254      7240      7238      7253      7255
      7240      7238      7253      7259      7241      7237      7238      7253
      7241      7237      7245      7246      7241      7237      7245      7247
      7241      7237      7245      7248      7241      7237      7249      7250
      7241      7237      7249      7251      7241      7237      7249      7252
      7242      7241      7237      7245      7242      7241      7237      7249
      7243      7241      7237      7245      7243      7241      7237      7249
      7244      7241      7237      7245      7244      7241      7237      7249
      7245      7237      7238      7253      7245      7237      7249      7250
      7245      7237      7249      7251      7245      7237      7249      7252
      7246      7245      7237      7249      7247      7245      7237      7249
      7248      7245      7237      7249      7249      7237      7238      7253
      7253      7259      7256      7257      7253      7259      7256      7258
      7253      7259      7256      7260      7254      7253      7259      7256
      7255      7253      7259      7256      7256      7260      7261      7262
      7256      7260      7261      7263      7256      7260      7261      7264
      7257      7256      7260      7261      7258      7256      7260      7261
      7259      7256      7260      7261      7260      7261      7264      7265
      7260      7261      7264      7266      7260      7261      7264      7272
      7261      7264      7266      7267      7261      7264      7272      7273
      7261      7264      7272      7274      7261      7264      7272      7275
      7262      7261      7264      7265      7262      7261      7264      7266
      7262      7261      7264      7272      7263      7261      7264      7265
      7263      7261      7264      7266      7263      7261      7264      7272
      7264      7266      7267      7268      7264      7266      7267      7269
      7264      7272      7275      7276      7265      7264      7266      7267
      7265      7264      7272      7273      7265      7264      7272      7274
      7265      7264      7272      7275      7266      7264      7272      7273
      7266      7264      7272      7274      7266      7264      7272      7275
      7266      7267      7269      7270      7266      7267      7269      7271
      7266      7267      7269      7281      7267      7266      7264      7272
      7267      7269      7281      7282      7267      7269      7281      7283
      7267      7269      7281      7284      7268      7267      7269      7270
      7268      7267      7269      7271      7268      7267      7269      7281
      7269      7281      7284      7285      7269      7281      7284      7286
      7269      7281      7284      7287      7270      7269      7281      7282
      7270      7269      7281      7283      7270      7269      7281      7284
      7271      7269      7281      7282      7271      7269      7281      7283
      7271      7269      7281      7284      7272      7275      7276      7277
      7272      7275      7276      7278      7273      7272      7275      7276
      7274      7272      7275      7276      7275      7276      7278      7279
      7275      7276      7278      7280      7275      7276      7278      7328
      7276      7278      7328      7329      7276      7278      7328      7330
      7276      7278      7328      7331      7277      7276      7278      7279
      7277      7276      7278      7280      7277      7276      7278      7328
      7278      7328      7331      7332      7278      7328      7331      7333
      7278      7328      7331      7334      7279      7278      7328      7329
      7279      7278      7328      7330      7279      7278      7328      7331
      7280      7278      7328      7329      7280      7278      7328      7330
      7280      7278      7328      7331      7281      7284      7287      7288
      7281      7284      7287      7289      7281      7284      7287      7290
      7282      7281      7284      7285      7282      7281      7284      7286
      7282      7281      7284      7287      7283      7281      7284      7285
      7283      7281      7284      7286      7283      7281      7284      7287
      7284      7287      7290      7291      7284      7287      7290      7292
      7284      7287      7290      7293      7285      7284      7287      7288
      7285      7284      7287      7289      7285      7284      7287      7290
      7286      7284      7287      7288      7286      7284      7287      7289
      7286      7284      7287      7290      7287      7290      7293      7294
      7287      7290      7293      7295      7287      7290      7293      7296
      7288      7287      7290      7291      7288      7287      7290      7292
      7288      7287      7290      7293      7289      7287      7290      7291
      7289      7287      7290      7292      7289      7287      7290      7293
      7290      7293      7296      7297      7290      7293      7296      7298
      7290      7293      7296      7299      7291      7290      7293      7294
      7291      7290      7293      7295      7291      7290      7293      7296
      7292      7290      7293      7294      7292      7290      7293      7295
      7292      7290      7293      7296      7293      7296      7299      7300
      7293      7296      7299      7301      7294      7293      7296      7297
      7294      7293      7296      7298      7294      7293      7296      7299
      7295      7293      7296      7297      7295      7293      7296      7298
      7295      7293      7296      7299      7296      7299      7301      7302
      7296      7299      7301      7303      7297      7296      7299      7300
      7297      7296      7299      7301      7298      7296      7299      7300
      7298      7296      7299      7301      7299      7301      7303      7304
      7299      7301      7303      7305      7299      7301      7303      7306
      7300      7299      7301      7302      7300      7299      7301      7303
      7301      7303      7306      7307      7301      7303      7306      7308
      7301      7303      7306      7309      7302      7301      7303      7304
      7302      7301      7303      7305      7302      7301      7303      7306
      7303      7306      7309      7310      7303      7306      7309      7311
      7303      7306      7309      7312      7304      7303      7306      7307
      7304      7303      7306      7308      7304      7303      7306      7309
      7305      7303      7306      7307      7305      7303      7306      7308
      7305      7303      7306      7309      7306      7309      7312      7313
      7306      7309      7312      7314      7306      7309      7312      7315
      7307      7306      7309      7310      7307      7306      7309      7311
      7307      7306      7309      7312      7308      7306      7309      7310
      7308      7306      7309      7311      7308      7306      7309      7312
      7309      7312      7315      7316      7309      7312      7315      7317
      7309      7312      7315      7318      7310      7309      7312      7313
      7310      7309      7312      7314      7310      7309      7312      7315
      7311      7309      7312      7313      7311      7309      7312      7314
      7311      7309      7312      7315      7312      7315      7318      7319
      7312      7315      7318      7320      7312      7315      7318      7321
      7313      7312      7315      7316      7313      7312      7315      7317
      7313      7312      7315      7318      7314      7312      7315      7316
      7314      7312      7315      7317      7314      7312      7315      7318
      7315      7318      7321      7322      7315      7318      7321      7323
      7315      7318      7321      7324      7316      7315      7318      7319
      7316      7315      7318      7320      7316      7315      7318      7321
      7317      7315      7318      7319      7317      7315      7318      7320
      7317      7315      7318      7321      7318      7321      7324      7325
      7318      7321      7324      7326      7318      7321      7324      7327
      7319      7318      7321      7322      7319      7318      7321      7323
      7319      7318      7321      7324      7320      7318      7321      7322
      7320      7318      7321      7323      7320      7318      7321      7324
      7322      7321      7324      7325      7322      7321      7324      7326
      7322      7321      7324      7327      7323      7321      7324      7325
      7323      7321      7324      7326      7323      7321      7324      7327
      7328      7331      7334      7335      7328      7331      7334      7336
      7328      7331      7334      7337      7329      7328      7331      7332
      7329      7328      7331      7333      7329      7328      7331      7334
      7330      7328      7331      7332      7330      7328      7331      7333
      7330      7328      7331      7334      7331      7334      7337      7338
      7331      7334      7337      7339      7331      7334      7337      7340
      7332      7331      7334      7335      7332      7331      7334      7336
      7332      7331      7334      7337      7333      7331      7334      7335
      7333      7331      7334      7336      7333      7331      7334      7337
      7334      7337      7340      7341      7334      7337      7340      7342
      7334      7337      7340      7343      7335      7334      7337      7338
      7335      7334      7337      7339      7335      7334      7337      7340
      7336      7334      7337      7338      7336      7334      7337      7339
      7336      7334      7337      7340      7337      7340      7343      7344
      7337      7340      7343      7345      7337      7340      7343      7346
      7338      7337      7340      7341      7338      7337      7340      7342
      7338      7337      7340      7343      7339      7337      7340      7341
      7339      7337      7340      7342      7339      7337      7340      7343
      7340      7343      7346      7347      7340      7343      7346      7348
      7340      7343      7346      7349      7341      7340      7343      7344
      7341      7340      7343      7345      7341      7340      7343      7346
      7342      7340      7343      7344      7342      7340      7343      7345
      7342      7340      7343      7346      7343      7346      7349      7350
      7343      7346      7349      7351      7343      7346      7349      7352
      7344      7343      7346      7347      7344      7343      7346      7348
      7344      7343      7346      7349      7345      7343      7346      7347
      7345      7343      7346      7348      7345      7343      7346      7349
      7346      7349      7352      7353      7346      7349      7352      7354
      7346      7349      7352      7355      7347      7346      7349      7350
      7347      7346      7349      7351      7347      7346      7349      7352
      7348      7346      7349      7350      7348      7346      7349      7351
      7348      7346      7349      7352      7349      7352      7355      7356
      7349      7352      7355      7357      7349      7352      7355      7358
      7350      7349      7352      7353      7350      7349      7352      7354
      7350      7349      7352      7355      7351      7349      7352      7353
      7351      7349      7352      7354      7351      7349      7352      7355
      7352      7355      7358      7359      7352      7355      7358      7360
      7352      7355      7358      7361      7353      7352      7355      7356
      7353      7352      7355      7357      7353      7352      7355      7358
      7354      7352      7355      7356      7354      7352      7355      7357
      7354      7352      7355      7358      7355      7358      7361      7362
      7355      7358      7361      7363      7355      7358      7361      7364
      7356      7355      7358      7359      7356      7355      7358      7360
      7356      7355      7358      7361      7357      7355      7358      7359
      7357      7355      7358      7360      7357      7355      7358      7361
      7358      7361      7364      7365      7358      7361      7364      7366
      7358      7361      7364      7367      7359      7358      7361      7362
      7359      7358      7361      7363      7359      7358      7361      7364
      7360      7358      7361      7362      7360      7358      7361      7363
      7360      7358      7361      7364      7361      7364      7367      7368
      7361      7364      7367      7369      7361      7364      7367      7370
      7362      7361      7364      7365      7362      7361      7364      7366
      7362      7361      7364      7367      7363      7361      7364      7365
      7363      7361      7364      7366      7363      7361      7364      7367
      7365      7364      7367      7368      7365      7364      7367      7369
      7365      7364      7367      7370      7366      7364      7367      7368
      7366      7364      7367      7369      7366      7364      7367      7370
      7371      7372      7387      7388      7371      7372      7387      7389
      7371      7372      7387      7393      7372      7371      7375      7376
      7372      7371      7375      7377      7372      7371      7375      7378
      7372      7371      7379      7380      7372      7371      7379      7381
      7372      7371      7379      7382      7372      7371      7383      7384
      7372      7371      7383      7385      7372      7371      7383      7386
      7372      7387      7393      7390      7373      7372      7371      7375
      7373      7372      7371      7379      7373      7372      7371      7383
      7373      7372      7387      7388      7373      7372      7387      7389
      7373      7372      7387      7393      7374      7372      7371      7375
      7374      7372      7371      7379      7374      7372      7371      7383
      7374      7372      7387      7388      7374      7372      7387      7389
      7374      7372      7387      7393      7375      7371      7372      7387
      7375      7371      7379      7380      7375      7371      7379      7381
      7375      7371      7379      7382      7375      7371      7383      7384
      7375      7371      7383      7385      7375      7371      7383      7386
      7376      7375      7371      7379      7376      7375      7371      7383
      7377      7375      7371      7379      7377      7375      7371      7383
      7378      7375      7371      7379      7378      7375      7371      7383
      7379      7371      7372      7387      7379      7371      7383      7384
      7379      7371      7383      7385      7379      7371      7383      7386
      7380      7379      7371      7383      7381      7379      7371      7383
      7382      7379      7371      7383      7383      7371      7372      7387
      7387      7393      7390      7391      7387      7393      7390      7392
      7387      7393      7390      7394      7388      7387      7393      7390
      7389      7387      7393      7390      7390      7394      7395      7396
      7390      7394      7395      7397      7390      7394      7395      7398
      7391      7390      7394      7395      7392      7390      7394      7395
      7393      7390      7394      7395      7394      7395      7398      7399
      7394      7395      7398      7400      7394      7395      7398      7406
      7395      7398      7400      7401      7395      7398      7406      7407
      7395      7398      7406      7408      7395      7398      7406      7409
      7396      7395      7398      7399      7396      7395      7398      7400
      7396      7395      7398      7406      7397      7395      7398      7399
      7397      7395      7398      7400      7397      7395      7398      7406
      7398      7400      7401      7402      7398      7400      7401      7403
      7398      7406      7409      7410      7399      7398      7400      7401
      7399      7398      7406      7407      7399      7398      7406      7408
      7399      7398      7406      7409      7400      7398      7406      7407
      7400      7398      7406      7408      7400      7398      7406      7409
      7400      7401      7403      7404      7400      7401      7403      7405
      7400      7401      7403      7415      7401      7400      7398      7406
      7401      7403      7415      7416      7401      7403      7415      7417
      7401      7403      7415      7418      7402      7401      7403      7404
      7402      7401      7403      7405      7402      7401      7403      7415
      7403      7415      7418      7419      7403      7415      7418      7420
      7403      7415      7418      7421      7404      7403      7415      7416
      7404      7403      7415      7417      7404      7403      7415      7418
      7405      7403      7415      7416      7405      7403      7415      7417
      7405      7403      7415      7418      7406      7409      7410      7411
      7406      7409      7410      7412      7407      7406      7409      7410
      7408      7406      7409      7410      7409      7410      7412      7413
      7409      7410      7412      7414      7409      7410      7412      7462
      7410      7412      7462      7463      7410      7412      7462      7464
      7410      7412      7462      7465      7411      7410      7412      7413
      7411      7410      7412      7414      7411      7410      7412      7462
      7412      7462      7465      7466      7412      7462      7465      7467
      7412      7462      7465      7468      7413      7412      7462      7463
      7413      7412      7462      7464      7413      7412      7462      7465
      7414      7412      7462      7463      7414      7412      7462      7464
      7414      7412      7462      7465      7415      7418      7421      7422
      7415      7418      7421      7423      7415      7418      7421      7424
      7416      7415      7418      7419      7416      7415      7418      7420
      7416      7415      7418      7421      7417      7415      7418      7419
      7417      7415      7418      7420      7417      7415      7418      7421
      7418      7421      7424      7425      7418      7421      7424      7426
      7418      7421      7424      7427      7419      7418      7421      7422
      7419      7418      7421      7423      7419      7418      7421      7424
      7420      7418      7421      7422      7420      7418      7421      7423
      7420      7418      7421      7424      7421      7424      7427      7428
      7421      7424      7427      7429      7421      7424      7427      7430
      7422      7421      7424      7425      7422      7421      7424      7426
      7422      7421      7424      7427      7423      7421      7424      7425
      7423      7421      7424      7426      7423      7421      7424      7427
      7424      7427      7430      7431      7424      7427      7430      7432
      7424      7427      7430      7433      7425      7424      7427      7428
      7425      7424      7427      7429      7425      7424      7427      7430
      7426      7424      7427      7428      7426      7424      7427      7429
      7426      7424      7427      7430      7427      7430      7433      7434
      7427      7430      7433      7435      7428      7427      7430      7431
      7428      7427      7430      7432      7428      7427      7430      7433
      7429      7427      7430      7431      7429      7427      7430      7432
      7429      7427      7430      7433      7430      7433      7435      7436
      7430      7433      7435      7437      7431      7430      7433      7434
      7431      7430      7433      7435      7432      7430      7433      7434
      7432      7430      7433      7435      7433      7435      7437      7438
      7433      7435      7437      7439      7433      7435      7437      7440
      7434      7433      7435      7436      7434      7433      7435      7437
      7435      7437      7440      7441      7435      7437      7440      7442
      7435      7437      7440      7443      7436      7435      7437      7438
      7436      7435      7437      7439      7436      7435      7437      7440
      7437      7440      7443      7444      7437      7440      7443      7445
      7437      7440      7443      7446      7438      7437      7440      7441
      7438      7437      7440      7442      7438      7437      7440      7443
      7439      7437      7440      7441      7439      7437      7440      7442
      7439      7437      7440      7443      7440      7443      7446      7447
      7440      7443      7446      7448      7440      7443      7446      7449
      7441      7440      7443      7444      7441      7440      7443      7445
      7441      7440      7443      7446      7442      7440      7443      7444
      7442      7440      7443      7445      7442      7440      7443      7446
      7443      7446      7449      7450      7443      7446      7449      7451
      7443      7446      7449      7452      7444      7443      7446      7447
      7444      7443      7446      7448      7444      7443      7446      7449
      7445      7443      7446      7447      7445      7443      7446      7448
      7445      7443      7446      7449      7446      7449      7452      7453
      7446      7449      7452      7454      7446      7449      7452      7455
      7447      7446      7449      7450      7447      7446      7449      7451
      7447      7446      7449      7452      7448      7446      7449      7450
      7448      7446      7449      7451      7448      7446      7449      7452
      7449      7452      7455      7456      7449      7452      7455      7457
      7449      7452      7455      7458      7450      7449      7452      7453
      7450      7449      7452      7454      7450      7449      7452      7455
      7451      7449      7452      7453      7451      7449      7452      7454
      7451      7449      7452      7455      7452      7455      7458      7459
      7452      7455      7458      7460      7452      7455      7458      7461
      7453      7452      7455      7456      7453      7452      7455      7457
      7453      7452      7455      7458      7454      7452      7455      7456
      7454      7452      7455      7457      7454      7452      7455      7458
      7456      7455      7458      7459      7456      7455      7458      7460
      7456      7455      7458      7461      7457      7455      7458      7459
      7457      7455      7458      7460      7457      7455      7458      7461
      7462      7465      7468      7469      7462      7465      7468      7470
      7462      7465      7468      7471      7463      7462      7465      7466
      7463      7462      7465      7467      7463      7462      7465      7468
      7464      7462      7465      7466      7464      7462      7465      7467
      7464      7462      7465      7468      7465      7468      7471      7472
      7465      7468      7471      7473      7465      7468      7471      7474
      7466      7465      7468      7469      7466      7465      7468      7470
      7466      7465      7468      7471      7467      7465      7468      7469
      7467      7465      7468      7470      7467      7465      7468      7471
      7468      7471      7474      7475      7468      7471      7474      7476
      7468      7471      7474      7477      7469      7468      7471      7472
      7469      7468      7471      7473      7469      7468      7471      7474
      7470      7468      7471      7472      7470      7468      7471      7473
      7470      7468      7471      7474      7471      7474      7477      7478
      7471      7474      7477      7479      7471      7474      7477      7480
      7472      7471      7474      7475      7472      7471      7474      7476
      7472      7471      7474      7477      7473      7471      7474      7475
      7473      7471      7474      7476      7473      7471      7474      7477
      7474      7477      7480      7481      7474      7477      7480      7482
      7474      7477      7480      7483      7475      7474      7477      7478
      7475      7474      7477      7479      7475      7474      7477      7480
      7476      7474      7477      7478      7476      7474      7477      7479
      7476      7474      7477      7480      7477      7480      7483      7484
      7477      7480      7483      7485      7477      7480      7483      7486
      7478      7477      7480      7481      7478      7477      7480      7482
      7478      7477      7480      7483      7479      7477      7480      7481
      7479      7477      7480      7482      7479      7477      7480      7483
      7480      7483      7486      7487      7480      7483      7486      7488
      7480      7483      7486      7489      7481      7480      7483      7484
      7481      7480      7483      7485      7481      7480      7483      7486
      7482      7480      7483      7484      7482      7480      7483      7485
      7482      7480      7483      7486      7483      7486      7489      7490
      7483      7486      7489      7491      7483      7486      7489      7492
      7484      7483      7486      7487      7484      7483      7486      7488
      7484      7483      7486      7489      7485      7483      7486      7487
      7485      7483      7486      7488      7485      7483      7486      7489
      7486      7489      7492      7493      7486      7489      7492      7494
      7486      7489      7492      7495      7487      7486      7489      7490
      7487      7486      7489      7491      7487      7486      7489      7492
      7488      7486      7489      7490      7488      7486      7489      7491
      7488      7486      7489      7492      7489      7492      7495      7496
      7489      7492      7495      7497      7489      7492      7495      7498
      7490      7489      7492      7493      7490      7489      7492      7494
      7490      7489      7492      7495      7491      7489      7492      7493
      7491      7489      7492      7494      7491      7489      7492      7495
      7492      7495      7498      7499      7492      7495      7498      7500
      7492      7495      7498      7501      7493      7492      7495      7496
      7493      7492      7495      7497      7493      7492      7495      7498
      7494      7492      7495      7496      7494      7492      7495      7497
      7494      7492      7495      7498      7495      7498      7501      7502
      7495      7498      7501      7503      7495      7498      7501      7504
      7496      7495      7498      7499      7496      7495      7498      7500
      7496      7495      7498      7501      7497      7495      7498      7499
      7497      7495      7498      7500      7497      7495      7498      7501
      7499      7498      7501      7502      7499      7498      7501      7503
      7499      7498      7501      7504      7500      7498      7501      7502
      7500      7498      7501      7503      7500      7498      7501      7504
      7505      7506      7521      7522      7505      7506      7521      7523
      7505      7506      7521      7527      7506      7505      7509      7510
      7506      7505      7509      7511      7506      7505      7509      7512
      7506      7505      7513      7514      7506      7505      7513      7515
      7506      7505      7513      7516      7506      7505      7517      7518
      7506      7505      7517      7519      7506      7505      7517      7520
      7506      7521      7527      7524      7507      7506      7505      7509
      7507      7506      7505      7513      7507      7506      7505      7517
      7507      7506      7521      7522      7507      7506      7521      7523
      7507      7506      7521      7527      7508      7506      7505      7509
      7508      7506      7505      7513      7508      7506      7505      7517
      7508      7506      7521      7522      7508      7506      7521      7523
      7508      7506      7521      7527      7509      7505      7506      7521
      7509      7505      7513      7514      7509      7505      7513      7515
      7509      7505      7513      7516      7509      7505      7517      7518
      7509      7505      7517      7519      7509      7505      7517      7520
      7510      7509      7505      7513      7510      7509      7505      7517
      7511      7509      7505      7513      7511      7509      7505      7517
      7512      7509      7505      7513      7512      7509      7505      7517
      7513      7505      7506      7521      7513      7505      7517      7518
      7513      7505      7517      7519      7513      7505      7517      7520
      7514      7513      7505      7517      7515      7513      7505      7517
      7516      7513      7505      7517      7517      7505      7506      7521
      7521      7527      7524      7525      7521      7527      7524      7526
      7521      7527      7524      7528      7522      7521      7527      7524
      7523      7521      7527      7524      7524      7528      7529      7530
      7524      7528      7529      7531      7524      7528      7529      7532
      7525      7524      7528      7529      7526      7524      7528      7529
      7527      7524      7528      7529      7528      7529      7532      7533
      7528      7529      7532      7534      7528      7529      7532      7540
      7529      7532      7534      7535      7529      7532      7540      7541
      7529      7532      7540      7542      7529      7532      7540      7543
      7530      7529      7532      7533      7530      7529      7532      7534
      7530      7529      7532      7540      7531      7529      7532      7533
      7531      7529      7532      7534      7531      7529      7532      7540
      7532      7534      7535      7536      7532      7534      7535      7537
      7532      7540      7543      7544      7533      7532      7534      7535
      7533      7532      7540      7541      7533      7532      7540      7542
      7533      7532      7540      7543      7534      7532      7540      7541
      7534      7532      7540      7542      7534      7532      7540      7543
      7534      7535      7537      7538      7534      7535      7537      7539
      7534      7535      7537      7549      7535      7534      7532      7540
      7535      7537      7549      7550      7535      7537      7549      7551
      7535      7537      7549      7552      7536      7535      7537      7538
      7536      7535      7537      7539      7536      7535      7537      7549
      7537      7549      7552      7553      7537      7549      7552      7554
      7537      7549      7552      7555      7538      7537      7549      7550
      7538      7537      7549      7551      7538      7537      7549      7552
      7539      7537      7549      7550      7539      7537      7549      7551
      7539      7537      7549      7552      7540      7543      7544      7545
      7540      7543      7544      7546      7541      7540      7543      7544
      7542      7540      7543      7544      7543      7544      7546      7547
      7543      7544      7546      7548      7543      7544      7546      7596
      7544      7546      7596      7597      7544      7546      7596      7598
      7544      7546      7596      7599      7545      7544      7546      7547
      7545      7544      7546      7548      7545      7544      7546      7596
      7546      7596      7599      7600      7546      7596      7599      7601
      7546      7596      7599      7602      7547      7546      7596      7597
      7547      7546      7596      7598      7547      7546      7596      7599
      7548      7546      7596      7597      7548      7546      7596      7598
      7548      7546      7596      7599      7549      7552      7555      7556
      7549      7552      7555      7557      7549      7552      7555      7558
      7550      7549      7552      7553      7550      7549      7552      7554
      7550      7549      7552      7555      7551      7549      7552      7553
      7551      7549      7552      7554      7551      7549      7552      7555
      7552      7555      7558      7559      7552      7555      7558      7560
      7552      7555      7558      7561      7553      7552      7555      7556
      7553      7552      7555      7557      7553      7552      7555      7558
      7554      7552      7555      7556      7554      7552      7555      7557
      7554      7552      7555      7558      7555      7558      7561      7562
      7555      7558      7561      7563      7555      7558      7561      7564
      7556      7555      7558      7559      7556      7555      7558      7560
      7556      7555      7558      7561      7557      7555      7558      7559
      7557      7555      7558      7560      7557      7555      7558      7561
      7558      7561      7564      7565      7558      7561      7564      7566
      7558      7561      7564      7567      7559      7558      7561      7562
      7559      7558      7561      7563      7559      7558      7561      7564
      7560      7558      7561      7562      7560      7558      7561      7563
      7560      7558      7561      7564      7561      7564      7567      7568
      7561      7564      7567      7569      7562      7561      7564      7565
      7562      7561      7564      7566      7562      7561      7564      7567
      7563      7561      7564      7565      7563      7561      7564      7566
      7563      7561      7564      7567      7564      7567      7569      7570
      7564      7567      7569      7571      7565      7564      7567      7568
      7565      7564      7567      7569      7566      7564      7567      7568
      7566      7564      7567      7569      7567      7569      7571      7572
      7567      7569      7571      7573      7567      7569      7571      7574
      7568      7567      7569      7570      7568      7567      7569      7571
      7569      7571      7574      7575      7569      7571      7574      7576
      7569      7571      7574      7577      7570      7569      7571      7572
      7570      7569      7571      7573      7570      7569      7571      7574
      7571      7574      7577      7578      7571      7574      7577      7579
      7571      7574      7577      7580      7572      7571      7574      7575
      7572      7571      7574      7576      7572      7571      7574      7577
      7573      7571      7574      7575      7573      7571      7574      7576
      7573      7571      7574      7577      7574      7577      7580      7581
      7574      7577      7580      7582      7574      7577      7580      7583
      7575      7574      7577      7578      7575      7574      7577      7579
      7575      7574      7577      7580      7576      7574      7577      7578
      7576      7574      7577      7579      7576      7574      7577      7580
      7577      7580      7583      7584      7577      7580      7583      7585
      7577      7580      7583      7586      7578      7577      7580      7581
      7578      7577      7580      7582      7578      7577      7580      7583
      7579      7577      7580      7581      7579      7577      7580      7582
      7579      7577      7580      7583      7580      7583      7586      7587
      7580      7583      7586      7588      7580      7583      7586      7589
      7581      7580      7583      7584      7581      7580      7583      7585
      7581      7580      7583      7586      7582      7580      7583      7584
      7582      7580      7583      7585      7582      7580      7583      7586
      7583      7586      7589      7590      7583      7586      7589      7591
      7583      7586      7589      7592      7584      7583      7586      7587
      7584      7583      7586      7588      7584      7583      7586      7589
      7585      7583      7586      7587      7585      7583      7586      7588
      7585      7583      7586      7589      7586      7589      7592      7593
      7586      7589      7592      7594      7586      7589      7592      7595
      7587      7586      7589      7590      7587      7586      7589      7591
      7587      7586      7589      7592      7588      7586      7589      7590
      7588      7586      7589      7591      7588      7586      7589      7592
      7590      7589      7592      7593      7590      7589      7592      7594
      7590      7589      7592      7595      7591      7589      7592      7593
      7591      7589      7592      7594      7591      7589      7592      7595
      7596      7599      7602      7603      7596      7599      7602      7604
      7596      7599      7602      7605      7597      7596      7599      7600
      7597      7596      7599      7601      7597      7596      7599      7602
      7598      7596      7599      7600      7598      7596      7599      7601
      7598      7596      7599      7602      7599      7602      7605      7606
      7599      7602      7605      7607      7599      7602      7605      7608
      7600      7599      7602      7603      7600      7599      7602      7604
      7600      7599      7602      7605      7601      7599      7602      7603
      7601      7599      7602      7604      7601      7599      7602      7605
      7602      7605      7608      7609      7602      7605      7608      7610
      7602      7605      7608      7611      7603      7602      7605      7606
      7603      7602      7605      7607      7603      7602      7605      7608
      7604      7602      7605      7606      7604      7602      7605      7607
      7604      7602      7605      7608      7605      7608      7611      7612
      7605      7608      7611      7613      7605      7608      7611      7614
      7606      7605      7608      7609      7606      7605      7608      7610
      7606      7605      7608      7611      7607      7605      7608      7609
      7607      7605      7608      7610      7607      7605      7608      7611
      7608      7611      7614      7615      7608      7611      7614      7616
      7608      7611      7614      7617      7609      7608      7611      7612
      7609      7608      7611      7613      7609      7608      7611      7614
      7610      7608      7611      7612      7610      7608      7611      7613
      7610      7608      7611      7614      7611      7614      7617      7618
      7611      7614      7617      7619      7611      7614      7617      7620
      7612      7611      7614      7615      7612      7611      7614      7616
      7612      7611      7614      7617      7613      7611      7614      7615
      7613      7611      7614      7616      7613      7611      7614      7617
      7614      7617      7620      7621      7614      7617      7620      7622
      7614      7617      7620      7623      7615      7614      7617      7618
      7615      7614      7617      7619      7615      7614      7617      7620
      7616      7614      7617      7618      7616      7614      7617      7619
      7616      7614      7617      7620      7617      7620      7623      7624
      7617      7620      7623      7625      7617      7620      7623      7626
      7618      7617      7620      7621      7618      7617      7620      7622
      7618      7617      7620      7623      7619      7617      7620      7621
      7619      7617      7620      7622      7619      7617      7620      7623
      7620      7623      7626      7627      7620      7623      7626      7628
      7620      7623      7626      7629      7621      7620      7623      7624
      7621      7620      7623      7625      7621      7620      7623      7626
      7622      7620      7623      7624      7622      7620      7623      7625
      7622      7620      7623      7626      7623      7626      7629      7630
      7623      7626      7629      7631      7623      7626      7629      7632
      7624      7623      7626      7627      7624      7623      7626      7628
      7624      7623      7626      7629      7625      7623      7626      7627
      7625      7623      7626      7628      7625      7623      7626      7629
      7626      7629      7632      7633      7626      7629      7632      7634
      7626      7629      7632      7635      7627      7626      7629      7630
      7627      7626      7629      7631      7627      7626      7629      7632
      7628      7626      7629      7630      7628      7626      7629      7631
      7628      7626      7629      7632      7629      7632      7635      7636
      7629      7632      7635      7637      7629      7632      7635      7638
      7630      7629      7632      7633      7630      7629      7632      7634
      7630      7629      7632      7635      7631      7629      7632      7633
      7631      7629      7632      7634      7631      7629      7632      7635
      7633      7632      7635      7636      7633      7632      7635      7637
      7633      7632      7635      7638      7634      7632      7635      7636
      7634      7632      7635      7637      7634      7632      7635      7638
      7639      7640      7655      7656      7639      7640      7655      7657
      7639      7640      7655      7661      7640      7639      7643      7644
      7640      7639      7643      7645      7640      7639      7643      7646
      7640      7639      7647      7648      7640      7639      7647      7649
      7640      7639      7647      7650      7640      7639      7651      7652
      7640      7639      7651      7653      7640      7639      7651      7654
      7640      7655      7661      7658      7641      7640      7639      7643
      7641      7640      7639      7647      7641      7640      7639      7651
      7641      7640      7655      7656      7641      7640      7655      7657
      7641      7640      7655      7661      7642      7640      7639      7643
      7642      7640      7639      7647      7642      7640      7639      7651
      7642      7640      7655      7656      7642      7640      7655      7657
      7642      7640      7655      7661      7643      7639      7640      7655
      7643      7639      7647      7648      7643      7639      7647      7649
      7643      7639      7647      7650      7643      7639      7651      7652
      7643      7639      7651      7653      7643      7639      7651      7654
      7644      7643      7639      7647      7644      7643      7639      7651
      7645      7643      7639      7647      7645      7643      7639      7651
      7646      7643      7639      7647      7646      7643      7639      7651
      7647      7639      7640      7655      7647      7639      7651      7652
      7647      7639      7651      7653      7647      7639      7651      7654
      7648      7647      7639      7651      7649      7647      7639      7651
      7650      7647      7639      7651      7651      7639      7640      7655
      7655      7661      7658      7659      7655      7661      7658      7660
      7655      7661      7658      7662      7656      7655      7661      7658
      7657      7655      7661      7658      7658      7662      7663      7664
      7658      7662      7663      7665      7658      7662      7663      7666
      7659      7658      7662      7663      7660      7658      7662      7663
      7661      7658      7662      7663      7662      7663      7666      7667
      7662      7663      7666      7668      7662      7663      7666      7674
      7663      7666      7668      7669      7663      7666      7674      7675
      7663      7666      7674      7676      7663      7666      7674      7677
      7664      7663      7666      7667      7664      7663      7666      7668
      7664      7663      7666      7674      7665      7663      7666      7667
      7665      7663      7666      7668      7665      7663      7666      7674
      7666      7668      7669      7670      7666      7668      7669      7671
      7666      7674      7677      7678      7667      7666      7668      7669
      7667      7666      7674      7675      7667      7666      7674      7676
      7667      7666      7674      7677      7668      7666      7674      7675
      7668      7666      7674      7676      7668      7666      7674      7677
      7668      7669      7671      7672      7668      7669      7671      7673
      7668      7669      7671      7683      7669      7668      7666      7674
      7669      7671      7683      7684      7669      7671      7683      7685
      7669      7671      7683      7686      7670      7669      7671      7672
      7670      7669      7671      7673      7670      7669      7671      7683
      7671      7683      7686      7687      7671      7683      7686      7688
      7671      7683      7686      7689      7672      7671      7683      7684
      7672      7671      7683      7685      7672      7671      7683      7686
      7673      7671      7683      7684      7673      7671      7683      7685
      7673      7671      7683      7686      7674      7677      7678      7679
      7674      7677      7678      7680      7675      7674      7677      7678
      7676      7674      7677      7678      7677      7678      7680      7681
      7677      7678      7680      7682      7677      7678      7680      7730
      7678      7680      7730      7731      7678      7680      7730      7732
      7678      7680      7730      7733      7679      7678      7680      7681
      7679      7678      7680      7682      7679      7678      7680      7730
      7680      7730      7733      7734      7680      7730      7733      7735
      7680      7730      7733      7736      7681      7680      7730      7731
      7681      7680      7730      7732      7681      7680      7730      7733
      7682      7680      7730      7731      7682      7680      7730      7732
      7682      7680      7730      7733      7683      7686      7689      7690
      7683      7686      7689      7691      7683      7686      7689      7692
      7684      7683      7686      7687      7684      7683      7686      7688
      7684      7683      7686      7689      7685      7683      7686      7687
      7685      7683      7686      7688      7685      7683      7686      7689
      7686      7689      7692      7693      7686      7689      7692      7694
      7686      7689      7692      7695      7687      7686      7689      7690
      7687      7686      7689      7691      7687      7686      7689      7692
      7688      7686      7689      7690      7688      7686      7689      7691
      7688      7686      7689      7692      7689      7692      7695      7696
      7689      7692      7695      7697      7689      7692      7695      7698
      7690      7689      7692      7693      7690      7689      7692      7694
      7690      7689      7692      7695      7691      7689      7692      7693
      7691      7689      7692      7694      7691      7689      7692      7695
      7692      7695      7698      7699      7692      7695      7698      7700
      7692      7695      7698      7701      7693      7692      7695      7696
      7693      7692      7695      7697      7693      7692      7695      7698
      7694      7692      7695      7696      7694      7692      7695      7697
      7694      7692      7695      7698      7695      7698      7701      7702
      7695      7698      7701      7703      7696      7695      7698      7699
      7696      7695      7698      7700      7696      7695      7698      7701
      7697      7695      7698      7699      7697      7695      7698      7700
      7697      7695      7698      7701      7698      7701      7703      7704
      7698      7701      7703      7705      7699      7698      7701      7702
      7699      7698      7701      7703      7700      7698      7701      7702
      7700      7698      7701      7703      7701      7703      7705      7706
      7701      7703      7705      7707      7701      7703      7705      7708
      7702      7701      7703      7704      7702      7701      7703      7705
      7703      7705      7708      7709      7703      7705      7708      7710
      7703      7705      7708      7711      7704      7703      7705      7706
      7704      7703      7705      7707      7704      7703      7705      7708
      7705      7708      7711      7712      7705      7708      7711      7713
      7705      7708      7711      7714      7706      7705      7708      7709
      7706      7705      7708      7710      7706      7705      7708      7711
      7707      7705      7708      7709      7707      7705      7708      7710
      7707      7705      7708      7711      7708      7711      7714      7715
      7708      7711      7714      7716      7708      7711      7714      7717
      7709      7708      7711      7712      7709      7708      7711      7713
      7709      7708      7711      7714      7710      7708      7711      7712
      7710      7708      7711      7713      7710      7708      7711      7714
      7711      7714      7717      7718      7711      7714      7717      7719
      7711      7714      7717      7720      7712      7711      7714      7715
      7712      7711      7714      7716      7712      7711      7714      7717
      7713      7711      7714      7715      7713      7711      7714      7716
      7713      7711      7714      7717      7714      7717      7720      7721
      7714      7717      7720      7722      7714      7717      7720      7723
      7715      7714      7717      7718      7715      7714      7717      7719
      7715      7714      7717      7720      7716      7714      7717      7718
      7716      7714      7717      7719      7716      7714      7717      7720
      7717      7720      7723      7724      7717      7720      7723      7725
      7717      7720      7723      7726      7718      7717      7720      7721
      7718      7717      7720      7722      7718      7717      7720      7723
      7719      7717      7720      7721      7719      7717      7720      7722
      7719      7717      7720      7723      7720      7723      7726      7727
      7720      7723      7726      7728      7720      7723      7726      7729
      7721      7720      7723      7724      7721      7720      7723      7725
      7721      7720      7723      7726      7722      7720      7723      7724
      7722      7720      7723      7725      7722      7720      7723      7726
      7724      7723      7726      7727      7724      7723      7726      7728
      7724      7723      7726      7729      7725      7723      7726      7727
      7725      7723      7726      7728      7725      7723      7726      7729
      7730      7733      7736      7737      7730      7733      7736      7738
      7730      7733      7736      7739      7731      7730      7733      7734
      7731      7730      7733      7735      7731      7730      7733      7736
      7732      7730      7733      7734      7732      7730      7733      7735
      7732      7730      7733      7736      7733      7736      7739      7740
      7733      7736      7739      7741      7733      7736      7739      7742
      7734      7733      7736      7737      7734      7733      7736      7738
      7734      7733      7736      7739      7735      7733      7736      7737
      7735      7733      7736      7738      7735      7733      7736      7739
      7736      7739      7742      7743      7736      7739      7742      7744
      7736      7739      7742      7745      7737      7736      7739      7740
      7737      7736      7739      7741      7737      7736      7739      7742
      7738      7736      7739      7740      7738      7736      7739      7741
      7738      7736      7739      7742      7739      7742      7745      7746
      7739      7742      7745      7747      7739      7742      7745      7748
      7740      7739      7742      7743      7740      7739      7742      7744
      7740      7739      7742      7745      7741      7739      7742      7743
      7741      7739      7742      7744      7741      7739      7742      7745
      7742      7745      7748      7749      7742      7745      7748      7750
      7742      7745      7748      7751      7743      7742      7745      7746
      7743      7742      7745      7747      7743      7742      7745      7748
      7744      7742      7745      7746      7744      7742      7745      7747
      7744      7742      7745      7748      7745      7748      7751      7752
      7745      7748      7751      7753      7745      7748      7751      7754
      7746      7745      7748      7749      7746      7745      7748      7750
      7746      7745      7748      7751      7747      7745      7748      7749
      7747      7745      7748      7750      7747      7745      7748      7751
      7748      7751      7754      7755      7748      7751      7754      7756
      7748      7751      7754      7757      7749      7748      7751      7752
      7749      7748      7751      7753      7749      7748      7751      7754
      7750      7748      7751      7752      7750      7748      7751      7753
      7750      7748      7751      7754      7751      7754      7757      7758
      7751      7754      7757      7759      7751      7754      7757      7760
      7752      7751      7754      7755      7752      7751      7754      7756
      7752      7751      7754      7757      7753      7751      7754      7755
      7753      7751      7754      7756      7753      7751      7754      7757
      7754      7757      7760      7761      7754      7757      7760      7762
      7754      7757      7760      7763      7755      7754      7757      7758
      7755      7754      7757      7759      7755      7754      7757      7760
      7756      7754      7757      7758      7756      7754      7757      7759
      7756      7754      7757      7760      7757      7760      7763      7764
      7757      7760      7763      7765      7757      7760      7763      7766
      7758      7757      7760      7761      7758      7757      7760      7762
      7758      7757      7760      7763      7759      7757      7760      7761
      7759      7757      7760      7762      7759      7757      7760      7763
      7760      7763      7766      7767      7760      7763      7766      7768
      7760      7763      7766      7769      7761      7760      7763      7764
      7761      7760      7763      7765      7761      7760      7763      7766
      7762      7760      7763      7764      7762      7760      7763      7765
      7762      7760      7763      7766      7763      7766      7769      7770
      7763      7766      7769      7771      7763      7766      7769      7772
      7764      7763      7766      7767      7764      7763      7766      7768
      7764      7763      7766      7769      7765      7763      7766      7767
      7765      7763      7766      7768      7765      7763      7766      7769
      7767      7766      7769      7770      7767      7766      7769      7771
      7767      7766      7769      7772      7768      7766      7769      7770
      7768      7766      7769      7771      7768      7766      7769      7772
      7773      7774      7789      7790      7773      7774      7789      7791
      7773      7774      7789      7795      7774      7773      7777      7778
      7774      7773      7777      7779      7774      7773      7777      7780
      7774      7773      7781      7782      7774      7773      7781      7783
      7774      7773      7781      7784      7774      7773      7785      7786
      7774      7773      7785      7787      7774      7773      7785      7788
      7774      7789      7795      7792      7775      7774      7773      7777
      7775      7774      7773      7781      7775      7774      7773      7785
      7775      7774      7789      7790      7775      7774      7789      7791
      7775      7774      7789      7795      7776      7774      7773      7777
      7776      7774      7773      7781      7776      7774      7773      7785
      7776      7774      7789      7790      7776      7774      7789      7791
      7776      7774      7789      7795      7777      7773      7774      7789
      7777      7773      7781      7782      7777      7773      7781      7783
      7777      7773      7781      7784      7777      7773      7785      7786
      7777      7773      7785      7787      7777      7773      7785      7788
      7778      7777      7773      7781      7778      7777      7773      7785
      7779      7777      7773      7781      7779      7777      7773      7785
      7780      7777      7773      7781      7780      7777      7773      7785
      7781      7773      7774      7789      7781      7773      7785      7786
      7781      7773      7785      7787      7781      7773      7785      7788
      7782      7781      7773      7785      7783      7781      7773      7785
      7784      7781      7773      7785      7785      7773      7774      7789
      7789      7795      7792      7793      7789      7795      7792      7794
      7789      7795      7792      7796      7790      7789      7795      7792
      7791      7789      7795      7792      7792      7796      7797      7798
      7792      7796      7797      7799      7792      7796      7797      7800
      7793      7792      7796      7797      7794      7792      7796      7797
      7795      7792      7796      7797      7796      7797      7800      7801
      7796      7797      7800      7802      7796      7797      7800      7808
      7797      7800      7802      7803      7797      7800      7808      7809
      7797      7800      7808      7810      7797      7800      7808      7811
      7798      7797      7800      7801      7798      7797      7800      7802
      7798      7797      7800      7808      7799      7797      7800      7801
      7799      7797      7800      7802      7799      7797      7800      7808
      7800      7802      7803      7804      7800      7802      7803      7805
      7800      7808      7811      7812      7801      7800      7802      7803
      7801      7800      7808      7809      7801      7800      7808      7810
      7801      7800      7808      7811      7802      7800      7808      7809
      7802      7800      7808      7810      7802      7800      7808      7811
      7802      7803      7805      7806      7802      7803      7805      7807
      7802      7803      7805      7817      7803      7802      7800      7808
      7803      7805      7817      7818      7803      7805      7817      7819
      7803      7805      7817      7820      7804      7803      7805      7806
      7804      7803      7805      7807      7804      7803      7805      7817
      7805      7817      7820      7821      7805      7817      7820      7822
      7805      7817      7820      7823      7806      7805      7817      7818
      7806      7805      7817      7819      7806      7805      7817      7820
      7807      7805      7817      7818      7807      7805      7817      7819
      7807      7805      7817      7820      7808      7811      7812      7813
      7808      7811      7812      7814      7809      7808      7811      7812
      7810      7808      7811      7812      7811      7812      7814      7815
      7811      7812      7814      7816      7811      7812      7814      7864
      7812      7814      7864      7865      7812      7814      7864      7866
      7812      7814      7864      7867      7813      7812      7814      7815
      7813      7812      7814      7816      7813      7812      7814      7864
      7814      7864      7867      7868      7814      7864      7867      7869
      7814      7864      7867      7870      7815      7814      7864      7865
      7815      7814      7864      7866      7815      7814      7864      7867
      7816      7814      7864      7865      7816      7814      7864      7866
      7816      7814      7864      7867      7817      7820      7823      7824
      7817      7820      7823      7825      7817      7820      7823      7826
      7818      7817      7820      7821      7818      7817      7820      7822
      7818      7817      7820      7823      7819      7817      7820      7821
      7819      7817      7820      7822      7819      7817      7820      7823
      7820      7823      7826      7827      7820      7823      7826      7828
      7820      7823      7826      7829      7821      7820      7823      7824
      7821      7820      7823      7825      7821      7820      7823      7826
      7822      7820      7823      7824      7822      7820      7823      7825
      7822      7820      7823      7826      7823      7826      7829      7830
      7823      7826      7829      7831      7823      7826      7829      7832
      7824      7823      7826      7827      7824      7823      7826      7828
      7824      7823      7826      7829      7825      7823      7826      7827
      7825      7823      7826      7828      7825      7823      7826      7829
      7826      7829      7832      7833      7826      7829      7832      7834
      7826      7829      7832      7835      7827      7826      7829      7830
      7827      7826      7829      7831      7827      7826      7829      7832
      7828      7826      7829      7830      7828      7826      7829      7831
      7828      7826      7829      7832      7829      7832      7835      7836
      7829      7832      7835      7837      7830      7829      7832      7833
      7830      7829      7832      7834      7830      7829      7832      7835
      7831      7829      7832      7833      7831      7829      7832      7834
      7831      7829      7832      7835      7832      7835      7837      7838
      7832      7835      7837      7839      7833      7832      7835      7836
      7833      7832      7835      7837      7834      7832      7835      7836
      7834      7832      7835      7837      7835      7837      7839      7840
      7835      7837      7839      7841      7835      7837      7839      7842
      7836      7835      7837      7838      7836      7835      7837      7839
      7837      7839      7842      7843      7837      7839      7842      7844
      7837      7839      7842      7845      7838      7837      7839      7840
      7838      7837      7839      7841      7838      7837      7839      7842
      7839      7842      7845      7846      7839      7842      7845      7847
      7839      7842      7845      7848      7840      7839      7842      7843
      7840      7839      7842      7844      7840      7839      7842      7845
      7841      7839      7842      7843      7841      7839      7842      7844
      7841      7839      7842      7845      7842      7845      7848      7849
      7842      7845      7848      7850      7842      7845      7848      7851
      7843      7842      7845      7846      7843      7842      7845      7847
      7843      7842      7845      7848      7844      7842      7845      7846
      7844      7842      7845      7847      7844      7842      7845      7848
      7845      7848      7851      7852      7845      7848      7851      7853
      7845      7848      7851      7854      7846      7845      7848      7849
      7846      7845      7848      7850      7846      7845      7848      7851
      7847      7845      7848      7849      7847      7845      7848      7850
      7847      7845      7848      7851      7848      7851      7854      7855
      7848      7851      7854      7856      7848      7851      7854      7857
      7849      7848      7851      7852      7849      7848      7851      7853
      7849      7848      7851      7854      7850      7848      7851      7852
      7850      7848      7851      7853      7850      7848      7851      7854
      7851      7854      7857      7858      7851      7854      7857      7859
      7851      7854      7857      7860      7852      7851      7854      7855
      7852      7851      7854      7856      7852      7851      7854      7857
      7853      7851      7854      7855      7853      7851      7854      7856
      7853      7851      7854      7857      7854      7857      7860      7861
      7854      7857      7860      7862      7854      7857      7860      7863
      7855      7854      7857      7858      7855      7854      7857      7859
      7855      7854      7857      7860      7856      7854      7857      7858
      7856      7854      7857      7859      7856      7854      7857      7860
      7858      7857      7860      7861      7858      7857      7860      7862
      7858      7857      7860      7863      7859      7857      7860      7861
      7859      7857      7860      7862      7859      7857      7860      7863
      7864      7867      7870      7871      7864      7867      7870      7872
      7864      7867      7870      7873      7865      7864      7867      7868
      7865      7864      7867      7869      7865      7864      7867      7870
      7866      7864      7867      7868      7866      7864      7867      7869
      7866      7864      7867      7870      7867      7870      7873      7874
      7867      7870      7873      7875      7867      7870      7873      7876
      7868      7867      7870      7871      7868      7867      7870      7872
      7868      7867      7870      7873      7869      7867      7870      7871
      7869      7867      7870      7872      7869      7867      7870      7873
      7870      7873      7876      7877      7870      7873      7876      7878
      7870      7873      7876      7879      7871      7870      7873      7874
      7871      7870      7873      7875      7871      7870      7873      7876
      7872      7870      7873      7874      7872      7870      7873      7875
      7872      7870      7873      7876      7873      7876      7879      7880
      7873      7876      7879      7881      7873      7876      7879      7882
      7874      7873      7876      7877      7874      7873      7876      7878
      7874      7873      7876      7879      7875      7873      7876      7877
      7875      7873      7876      7878      7875      7873      7876      7879
      7876      7879      7882      7883      7876      7879      7882      7884
      7876      7879      7882      7885      7877      7876      7879      7880
      7877      7876      7879      7881      7877      7876      7879      7882
      7878      7876      7879      7880      7878      7876      7879      7881
      7878      7876      7879      7882      7879      7882      7885      7886
      7879      7882      7885      7887      7879      7882      7885      7888
      7880      7879      7882      7883      7880      7879      7882      7884
      7880      7879      7882      7885      7881      7879      7882      7883
      7881      7879      7882      7884      7881      7879      7882      7885
      7882      7885      7888      7889      7882      7885      7888      7890
      7882      7885      7888      7891      7883      7882      7885      7886
      7883      7882      7885      7887      7883      7882      7885      7888
      7884      7882      7885      7886      7884      7882      7885      7887
      7884      7882      7885      7888      7885      7888      7891      7892
      7885      7888      7891      7893      7885      7888      7891      7894
      7886      7885      7888      7889      7886      7885      7888      7890
      7886      7885      7888      7891      7887      7885      7888      7889
      7887      7885      7888      7890      7887      7885      7888      7891
      7888      7891      7894      7895      7888      7891      7894      7896
      7888      7891      7894      7897      7889      7888      7891      7892
      7889      7888      7891      7893      7889      7888      7891      7894
      7890      7888      7891      7892      7890      7888      7891      7893
      7890      7888      7891      7894      7891      7894      7897      7898
      7891      7894      7897      7899      7891      7894      7897      7900
      7892      7891      7894      7895      7892      7891      7894      7896
      7892      7891      7894      7897      7893      7891      7894      7895
      7893      7891      7894      7896      7893      7891      7894      7897
      7894      7897      7900      7901      7894      7897      7900      7902
      7894      7897      7900      7903      7895      7894      7897      7898
      7895      7894      7897      7899      7895      7894      7897      7900
      7896      7894      7897      7898      7896      7894      7897      7899
      7896      7894      7897      7900      7897      7900      7903      7904
      7897      7900      7903      7905      7897      7900      7903      7906
      7898      7897      7900      7901      7898      7897      7900      7902
      7898      7897      7900      7903      7899      7897      7900      7901
      7899      7897      7900      7902      7899      7897      7900      7903
      7901      7900      7903      7904      7901      7900      7903      7905
      7901      7900      7903      7906      7902      7900      7903      7904
      7902      7900      7903      7905      7902      7900      7903      7906
      7907      7908      7923      7924      7907      7908      7923      7925
      7907      7908      7923      7929      7908      7907      7911      7912
      7908      7907      7911      7913      7908      7907      7911      7914
      7908      7907      7915      7916      7908      7907      7915      7917
      7908      7907      7915      7918      7908      7907      7919      7920
      7908      7907      7919      7921      7908      7907      7919      7922
      7908      7923      7929      7926      7909      7908      7907      7911
      7909      7908      7907      7915      7909      7908      7907      7919
      7909      7908      7923      7924      7909      7908      7923      7925
      7909      7908      7923      7929      7910      7908      7907      7911
      7910      7908      7907      7915      7910      7908      7907      7919
      7910      7908      7923      7924      7910      7908      7923      7925
      7910      7908      7923      7929      7911      7907      7908      7923
      7911      7907      7915      7916      7911      7907      7915      7917
      7911      7907      7915      7918      7911      7907      7919      7920
      7911      7907      7919      7921      7911      7907      7919      7922
      7912      7911      7907      7915      7912      7911      7907      7919
      7913      7911      7907      7915      7913      7911      7907      7919
      7914      7911      7907      7915      7914      7911      7907      7919
      7915      7907      7908      7923      7915      7907      7919      7920
      7915      7907      7919      7921      7915      7907      7919      7922
      7916      7915      7907      7919      7917      7915      7907      7919
      7918      7915      7907      7919      7919      7907      7908      7923
      7923      7929      7926      7927      7923      7929      7926      7928
      7923      7929      7926      7930      7924      7923      7929      7926
      7925      7923      7929      7926      7926      7930      7931      7932
      7926      7930      7931      7933      7926      7930      7931      7934
      7927      7926      7930      7931      7928      7926      7930      7931
      7929      7926      7930      7931      7930      7931      7934      7935
      7930      7931      7934      7936      7930      7931      7934      7942
      7931      7934      7936      7937      7931      7934      7942      7943
      7931      7934      7942      7944      7931      7934      7942      7945
      7932      7931      7934      7935      7932      7931      7934      7936
      7932      7931      7934      7942      7933      7931      7934      7935
      7933      7931      7934      7936      7933      7931      7934      7942
      7934      7936      7937      7938      7934      7936      7937      7939
      7934      7942      7945      7946      7935      7934      7936      7937
      7935      7934      7942      7943      7935      7934      7942      7944
      7935      7934      7942      7945      7936      7934      7942      7943
      7936      7934      7942      7944      7936      7934      7942      7945
      7936      7937      7939      7940      7936      7937      7939      7941
      7936      7937      7939      7951      7937      7936      7934      7942
      7937      7939      7951      7952      7937      7939      7951      7953
      7937      7939      7951      7954      7938      7937      7939      7940
      7938      7937      7939      7941      7938      7937      7939      7951
      7939      7951      7954      7955      7939      7951      7954      7956
      7939      7951      7954      7957      7940      7939      7951      7952
      7940      7939      7951      7953      7940      7939      7951      7954
      7941      7939      7951      7952      7941      7939      7951      7953
      7941      7939      7951      7954      7942      7945      7946      7947
      7942      7945      7946      7948      7943      7942      7945      7946
      7944      7942      7945      7946      7945      7946      7948      7949
      7945      7946      7948      7950      7945      7946      7948      7998
      7946      7948      7998      7999      7946      7948      7998      8000
      7946      7948      7998      8001      7947      7946      7948      7949
      7947      7946      7948      7950      7947      7946      7948      7998
      7948      7998      8001      8002      7948      7998      8001      8003
      7948      7998      8001      8004      7949      7948      7998      7999
      7949      7948      7998      8000      7949      7948      7998      8001
      7950      7948      7998      7999      7950      7948      7998      8000
      7950      7948      7998      8001      7951      7954      7957      7958
      7951      7954      7957      7959      7951      7954      7957      7960
      7952      7951      7954      7955      7952      7951      7954      7956
      7952      7951      7954      7957      7953      7951      7954      7955
      7953      7951      7954      7956      7953      7951      7954      7957
      7954      7957      7960      7961      7954      7957      7960      7962
      7954      7957      7960      7963      7955      7954      7957      7958
      7955      7954      7957      7959      7955      7954      7957      7960
      7956      7954      7957      7958      7956      7954      7957      7959
      7956      7954      7957      7960      7957      7960      7963      7964
      7957      7960      7963      7965      7957      7960      7963      7966
      7958      7957      7960      7961      7958      7957      7960      7962
      7958      7957      7960      7963      7959      7957      7960      7961
      7959      7957      7960      7962      7959      7957      7960      7963
      7960      7963      7966      7967      7960      7963      7966      7968
      7960      7963      7966      7969      7961      7960      7963      7964
      7961      7960      7963      7965      7961      7960      7963      7966
      7962      7960      7963      7964      7962      7960      7963      7965
      7962      7960      7963      7966      7963      7966      7969      7970
      7963      7966      7969      7971      7964      7963      7966      7967
      7964      7963      7966      7968      7964      7963      7966      7969
      7965      7963      7966      7967      7965      7963      7966      7968
      7965      7963      7966      7969      7966      7969      7971      7972
      7966      7969      7971      7973      7967      7966      7969      7970
      7967      7966      7969      7971      7968      7966      7969      7970
      7968      7966      7969      7971      7969      7971      7973      7974
      7969      7971      7973      7975      7969      7971      7973      7976
      7970      7969      7971      7972      7970      7969      7971      7973
      7971      7973      7976      7977      7971      7973      7976      7978
      7971      7973      7976      7979      7972      7971      7973      7974
      7972      7971      7973      7975      7972      7971      7973      7976
      7973      7976      7979      7980      7973      7976      7979      7981
      7973      7976      7979      7982      7974      7973      7976      7977
      7974      7973      7976      7978      7974      7973      7976      7979
      7975      7973      7976      7977      7975      7973      7976      7978
      7975      7973      7976      7979      7976      7979      7982      7983
      7976      7979      7982      7984      7976      7979      7982      7985
      7977      7976      7979      7980      7977      7976      7979      7981
      7977      7976      7979      7982      7978      7976      7979      7980
      7978      7976      7979      7981      7978      7976      7979      7982
      7979      7982      7985      7986      7979      7982      7985      7987
      7979      7982      7985      7988      7980      7979      7982      7983
      7980      7979      7982      7984      7980      7979      7982      7985
      7981      7979      7982      7983      7981      7979      7982      7984
      7981      7979      7982      7985      7982      7985      7988      7989
      7982      7985      7988      7990      7982      7985      7988      7991
      7983      7982      7985      7986      7983      7982      7985      7987
      7983      7982      7985      7988      7984      7982      7985      7986
      7984      7982      7985      7987      7984      7982      7985      7988
      7985      7988      7991      7992      7985      7988      7991      7993
      7985      7988      7991      7994      7986      7985      7988      7989
      7986      7985      7988      7990      7986      7985      7988      7991
      7987      7985      7988      7989      7987      7985      7988      7990
      7987      7985      7988      7991      7988      7991      7994      7995
      7988      7991      7994      7996      7988      7991      7994      7997
      7989      7988      7991      7992      7989      7988      7991      7993
      7989      7988      7991      7994      7990      7988      7991      7992
      7990      7988      7991      7993      7990      7988      7991      7994
      7992      7991      7994      7995      7992      7991      7994      7996
      7992      7991      7994      7997      7993      7991      7994      7995
      7993      7991      7994      7996      7993      7991      7994      7997
      7998      8001      8004      8005      7998      8001      8004      8006
      7998      8001      8004      8007      7999      7998      8001      8002
      7999      7998      8001      8003      7999      7998      8001      8004
      8000      7998      8001      8002      8000      7998      8001      8003
      8000      7998      8001      8004      8001      8004      8007      8008
      8001      8004      8007      8009      8001      8004      8007      8010
      8002      8001      8004      8005      8002      8001      8004      8006
      8002      8001      8004      8007      8003      8001      8004      8005
      8003      8001      8004      8006      8003      8001      8004      8007
      8004      8007      8010      8011      8004      8007      8010      8012
      8004      8007      8010      8013      8005      8004      8007      8008
      8005      8004      8007      8009      8005      8004      8007      8010
      8006      8004      8007      8008      8006      8004      8007      8009
      8006      8004      8007      8010      8007      8010      8013      8014
      8007      8010      8013      8015      8007      8010      8013      8016
      8008      8007      8010      8011      8008      8007      8010      8012
      8008      8007      8010      8013      8009      8007      8010      8011
      8009      8007      8010      8012      8009      8007      8010      8013
      8010      8013      8016      8017      8010      8013      8016      8018
      8010      8013      8016      8019      8011      8010      8013      8014
      8011      8010      8013      8015      8011      8010      8013      8016
      8012      8010      8013      8014      8012      8010      8013      8015
      8012      8010      8013      8016      8013      8016      8019      8020
      8013      8016      8019      8021      8013      8016      8019      8022
      8014      8013      8016      8017      8014      8013      8016      8018
      8014      8013      8016      8019      8015      8013      8016      8017
      8015      8013      8016      8018      8015      8013      8016      8019
      8016      8019      8022      8023      8016      8019      8022      8024
      8016      8019      8022      8025      8017      8016      8019      8020
      8017      8016      8019      8021      8017      8016      8019      8022
      8018      8016      8019      8020      8018      8016      8019      8021
      8018      8016      8019      8022      8019      8022      8025      8026
      8019      8022      8025      8027      8019      8022      8025      8028
      8020      8019      8022      8023      8020      8019      8022      8024
      8020      8019      8022      8025      8021      8019      8022      8023
      8021      8019      8022      8024      8021      8019      8022      8025
      8022      8025      8028      8029      8022      8025      8028      8030
      8022      8025      8028      8031      8023      8022      8025      8026
      8023      8022      8025      8027      8023      8022      8025      8028
      8024      8022      8025      8026      8024      8022      8025      8027
      8024      8022      8025      8028      8025      8028      8031      8032
      8025      8028      8031      8033      8025      8028      8031      8034
      8026      8025      8028      8029      8026      8025      8028      8030
      8026      8025      8028      8031      8027      8025      8028      8029
      8027      8025      8028      8030      8027      8025      8028      8031
      8028      8031      8034      8035      8028      8031      8034      8036
      8028      8031      8034      8037      8029      8028      8031      8032
      8029      8028      8031      8033      8029      8028      8031      8034
      8030      8028      8031      8032      8030      8028      8031      8033
      8030      8028      8031      8034      8031      8034      8037      8038
      8031      8034      8037      8039      8031      8034      8037      8040
      8032      8031      8034      8035      8032      8031      8034      8036
      8032      8031      8034      8037      8033      8031      8034      8035
      8033      8031      8034      8036      8033      8031      8034      8037
      8035      8034      8037      8038      8035      8034      8037      8039
      8035      8034      8037      8040      8036      8034      8037      8038
      8036      8034      8037      8039      8036      8034      8037      8040
      8041      8042      8057      8058      8041      8042      8057      8059
      8041      8042      8057      8063      8042      8041      8045      8046
      8042      8041      8045      8047      8042      8041      8045      8048
      8042      8041      8049      8050      8042      8041      8049      8051
      8042      8041      8049      8052      8042      8041      8053      8054
      8042      8041      8053      8055      8042      8041      8053      8056
      8042      8057      8063      8060      8043      8042      8041      8045
      8043      8042      8041      8049      8043      8042      8041      8053
      8043      8042      8057      8058      8043      8042      8057      8059
      8043      8042      8057      8063      8044      8042      8041      8045
      8044      8042      8041      8049      8044      8042      8041      8053
      8044      8042      8057      8058      8044      8042      8057      8059
      8044      8042      8057      8063      8045      8041      8042      8057
      8045      8041      8049      8050      8045      8041      8049      8051
      8045      8041      8049      8052      8045      8041      8053      8054
      8045      8041      8053      8055      8045      8041      8053      8056
      8046      8045      8041      8049      8046      8045      8041      8053
      8047      8045      8041      8049      8047      8045      8041      8053
      8048      8045      8041      8049      8048      8045      8041      8053
      8049      8041      8042      8057      8049      8041      8053      8054
      8049      8041      8053      8055      8049      8041      8053      8056
      8050      8049      8041      8053      8051      8049      8041      8053
      8052      8049      8041      8053      8053      8041      8042      8057
      8057      8063      8060      8061      8057      8063      8060      8062
      8057      8063      8060      8064      8058      8057      8063      8060
      8059      8057      8063      8060      8060      8064      8065      8066
      8060      8064      8065      8067      8060      8064      8065      8068
      8061      8060      8064      8065      8062      8060      8064      8065
      8063      8060      8064      8065      8064      8065      8068      8069
      8064      8065      8068      8070      8064      8065      8068      8076
      8065      8068      8070      8071      8065      8068      8076      8077
      8065      8068      8076      8078      8065      8068      8076      8079
      8066      8065      8068      8069      8066      8065      8068      8070
      8066      8065      8068      8076      8067      8065      8068      8069
      8067      8065      8068      8070      8067      8065      8068      8076
      8068      8070      8071      8072      8068      8070      8071      8073
      8068      8076      8079      8080      8069      8068      8070      8071
      8069      8068      8076      8077      8069      8068      8076      8078
      8069      8068      8076      8079      8070      8068      8076      8077
      8070      8068      8076      8078      8070      8068      8076      8079
      8070      8071      8073      8074      8070      8071      8073      8075
      8070      8071      8073      8085      8071      8070      8068      8076
      8071      8073      8085      8086      8071      8073      8085      8087
      8071      8073      8085      8088      8072      8071      8073      8074
      8072      8071      8073      8075      8072      8071      8073      8085
      8073      8085      8088      8089      8073      8085      8088      8090
      8073      8085      8088      8091      8074      8073      8085      8086
      8074      8073      8085      8087      8074      8073      8085      8088
      8075      8073      8085      8086      8075      8073      8085      8087
      8075      8073      8085      8088      8076      8079      8080      8081
      8076      8079      8080      8082      8077      8076      8079      8080
      8078      8076      8079      8080      8079      8080      8082      8083
      8079      8080      8082      8084      8079      8080      8082      8132
      8080      8082      8132      8133      8080      8082      8132      8134
      8080      8082      8132      8135      8081      8080      8082      8083
      8081      8080      8082      8084      8081      8080      8082      8132
      8082      8132      8135      8136      8082      8132      8135      8137
      8082      8132      8135      8138      8083      8082      8132      8133
      8083      8082      8132      8134      8083      8082      8132      8135
      8084      8082      8132      8133      8084      8082      8132      8134
      8084      8082      8132      8135      8085      8088      8091      8092
      8085      8088      8091      8093      8085      8088      8091      8094
      8086      8085      8088      8089      8086      8085      8088      8090
      8086      8085      8088      8091      8087      8085      8088      8089
      8087      8085      8088      8090      8087      8085      8088      8091
      8088      8091      8094      8095      8088      8091      8094      8096
      8088      8091      8094      8097      8089      8088      8091      8092
      8089      8088      8091      8093      8089      8088      8091      8094
      8090      8088      8091      8092      8090      8088      8091      8093
      8090      8088      8091      8094      8091      8094      8097      8098
      8091      8094      8097      8099      8091      8094      8097      8100
      8092      8091      8094      8095      8092      8091      8094      8096
      8092      8091      8094      8097      8093      8091      8094      8095
      8093      8091      8094      8096      8093      8091      8094      8097
      8094      8097      8100      8101      8094      8097      8100      8102
      8094      8097      8100      8103      8095      8094      8097      8098
      8095      8094      8097      8099      8095      8094      8097      8100
      8096      8094      8097      8098      8096      8094      8097      8099
      8096      8094      8097      8100      8097      8100      8103      8104
      8097      8100      8103      8105      8098      8097      8100      8101
      8098      8097      8100      8102      8098      8097      8100      8103
      8099      8097      8100      8101      8099      8097      8100      8102
      8099      8097      8100      8103      8100      8103      8105      8106
      8100      8103      8105      8107      8101      8100      8103      8104
      8101      8100      8103      8105      8102      8100      8103      8104
      8102      8100      8103      8105      8103      8105      8107      8108
      8103      8105      8107      8109      8103      8105      8107      8110
      8104      8103      8105      8106      8104      8103      8105      8107
      8105      8107      8110      8111      8105      8107      8110      8112
      8105      8107      8110      8113      8106      8105      8107      8108
      8106      8105      8107      8109      8106      8105      8107      8110
      8107      8110      8113      8114      8107      8110      8113      8115
      8107      8110      8113      8116      8108      8107      8110      8111
      8108      8107      8110      8112      8108      8107      8110      8113
      8109      8107      8110      8111      8109      8107      8110      8112
      8109      8107      8110      8113      8110      8113      8116      8117
      8110      8113      8116      8118      8110      8113      8116      8119
      8111      8110      8113      8114      8111      8110      8113      8115
      8111      8110      8113      8116      8112      8110      8113      8114
      8112      8110      8113      8115      8112      8110      8113      8116
      8113      8116      8119      8120      8113      8116      8119      8121
      8113      8116      8119      8122      8114      8113      8116      8117
      8114      8113      8116      8118      8114      8113      8116      8119
      8115      8113      8116      8117      8115      8113      8116      8118
      8115      8113      8116      8119      8116      8119      8122      8123
      8116      8119      8122      8124      8116      8119      8122      8125
      8117      8116      8119      8120      8117      8116      8119      8121
      8117      8116      8119      8122      8118      8116      8119      8120
      8118      8116      8119      8121      8118      8116      8119      8122
      8119      8122      8125      8126      8119      8122      8125      8127
      8119      8122      8125      8128      8120      8119      8122      8123
      8120      8119      8122      8124      8120      8119      8122      8125
      8121      8119      8122      8123      8121      8119      8122      8124
      8121      8119      8122      8125      8122      8125      8128      8129
      8122      8125      8128      8130      8122      8125      8128      8131
      8123      8122      8125      8126      8123      8122      8125      8127
      8123      8122      8125      8128      8124      8122      8125      8126
      8124      8122      8125      8127      8124      8122      8125      8128
      8126      8125      8128      8129      8126      8125      8128      8130
      8126      8125      8128      8131      8127      8125      8128      8129
      8127      8125      8128      8130      8127      8125      8128      8131
      8132      8135      8138      8139      8132      8135      8138      8140
      8132      8135      8138      8141      8133      8132      8135      8136
      8133      8132      8135      8137      8133      8132      8135      8138
      8134      8132      8135      8136      8134      8132      8135      8137
      8134      8132      8135      8138      8135      8138      8141      8142
      8135      8138      8141      8143      8135      8138      8141      8144
      8136      8135      8138      8139      8136      8135      8138      8140
      8136      8135      8138      8141      8137      8135      8138      8139
      8137      8135      8138      8140      8137      8135      8138      8141
      8138      8141      8144      8145      8138      8141      8144      8146
      8138      8141      8144      8147      8139      8138      8141      8142
      8139      8138      8141      8143      8139      8138      8141      8144
      8140      8138      8141      8142      8140      8138      8141      8143
      8140      8138      8141      8144      8141      8144      8147      8148
      8141      8144      8147      8149      8141      8144      8147      8150
      8142      8141      8144      8145      8142      8141      8144      8146
      8142      8141      8144      8147      8143      8141      8144      8145
      8143      8141      8144      8146      8143      8141      8144      8147
      8144      8147      8150      8151      8144      8147      8150      8152
      8144      8147      8150      8153      8145      8144      8147      8148
      8145      8144      8147      8149      8145      8144      8147      8150
      8146      8144      8147      8148      8146      8144      8147      8149
      8146      8144      8147      8150      8147      8150      8153      8154
      8147      8150      8153      8155      8147      8150      8153      8156
      8148      8147      8150      8151      8148      8147      8150      8152
      8148      8147      8150      8153      8149      8147      8150      8151
      8149      8147      8150      8152      8149      8147      8150      8153
      8150      8153      8156      8157      8150      8153      8156      8158
      8150      8153      8156      8159      8151      8150      8153      8154
      8151      8150      8153      8155      8151      8150      8153      8156
      8152      8150      8153      8154      8152      8150      8153      8155
      8152      8150      8153      8156      8153      8156      8159      8160
      8153      8156      8159      8161      8153      8156      8159      8162
      8154      8153      8156      8157      8154      8153      8156      8158
      8154      8153      8156      8159      8155      8153      8156      8157
      8155      8153      8156      8158      8155      8153      8156      8159
      8156      8159      8162      8163      8156      8159      8162      8164
      8156      8159      8162      8165      8157      8156      8159      8160
      8157      8156      8159      8161      8157      8156      8159      8162
      8158      8156      8159      8160      8158      8156      8159      8161
      8158      8156      8159      8162      8159      8162      8165      8166
      8159      8162      8165      8167      8159      8162      8165      8168
      8160      8159      8162      8163      8160      8159      8162      8164
      8160      8159      8162      8165      8161      8159      8162      8163
      8161      8159      8162      8164      8161      8159      8162      8165
      8162      8165      8168      8169      8162      8165      8168      8170
      8162      8165      8168      8171      8163      8162      8165      8166
      8163      8162      8165      8167      8163      8162      8165      8168
      8164      8162      8165      8166      8164      8162      8165      8167
      8164      8162      8165      8168      8165      8168      8171      8172
      8165      8168      8171      8173      8165      8168      8171      8174
      8166      8165      8168      8169      8166      8165      8168      8170
      8166      8165      8168      8171      8167      8165      8168      8169
      8167      8165      8168      8170      8167      8165      8168      8171
      8169      8168      8171      8172      8169      8168      8171      8173
      8169      8168      8171      8174      8170      8168      8171      8172
      8170      8168      8171      8173      8170      8168      8171      8174
      8175      8176      8191      8192      8175      8176      8191      8193
      8175      8176      8191      8197      8176      8175      8179      8180
      8176      8175      8179      8181      8176      8175      8179      8182
      8176      8175      8183      8184      8176      8175      8183      8185
      8176      8175      8183      8186      8176      8175      8187      8188
      8176      8175      8187      8189      8176      8175      8187      8190
      8176      8191      8197      8194      8177      8176      8175      8179
      8177      8176      8175      8183      8177      8176      8175      8187
      8177      8176      8191      8192      8177      8176      8191      8193
      8177      8176      8191      8197      8178      8176      8175      8179
      8178      8176      8175      8183      8178      8176      8175      8187
      8178      8176      8191      8192      8178      8176      8191      8193
      8178      8176      8191      8197      8179      8175      8176      8191
      8179      8175      8183      8184      8179      8175      8183      8185
      8179      8175      8183      8186      8179      8175      8187      8188
      8179      8175      8187      8189      8179      8175      8187      8190
      8180      8179      8175      8183      8180      8179      8175      8187
      8181      8179      8175      8183      8181      8179      8175      8187
      8182      8179      8175      8183      8182      8179      8175      8187
      8183      8175      8176      8191      8183      8175      8187      8188
      8183      8175      8187      8189      8183      8175      8187      8190
      8184      8183      8175      8187      8185      8183      8175      8187
      8186      8183      8175      8187      8187      8175      8176      8191
      8191      8197      8194      8195      8191      8197      8194      8196
      8191      8197      8194      8198      8192      8191      8197      8194
      8193      8191      8197      8194      8194      8198      8199      8200
      8194      8198      8199      8201      8194      8198      8199      8202
      8195      8194      8198      8199      8196      8194      8198      8199
      8197      8194      8198      8199      8198      8199      8202      8203
      8198      8199      8202      8204      8198      8199      8202      8210
      8199      8202      8204      8205      8199      8202      8210      8211
      8199      8202      8210      8212      8199      8202      8210      8213
      8200      8199      8202      8203      8200      8199      8202      8204
      8200      8199      8202      8210      8201      8199      8202      8203
      8201      8199      8202      8204      8201      8199      8202      8210
      8202      8204      8205      8206      8202      8204      8205      8207
      8202      8210      8213      8214      8203      8202      8204      8205
      8203      8202      8210      8211      8203      8202      8210      8212
      8203      8202      8210      8213      8204      8202      8210      8211
      8204      8202      8210      8212      8204      8202      8210      8213
      8204      8205      8207      8208      8204      8205      8207      8209
      8204      8205      8207      8219      8205      8204      8202      8210
      8205      8207      8219      8220      8205      8207      8219      8221
      8205      8207      8219      8222      8206      8205      8207      8208
      8206      8205      8207      8209      8206      8205      8207      8219
      8207      8219      8222      8223      8207      8219      8222      8224
      8207      8219      8222      8225      8208      8207      8219      8220
      8208      8207      8219      8221      8208      8207      8219      8222
      8209      8207      8219      8220      8209      8207      8219      8221
      8209      8207      8219      8222      8210      8213      8214      8215
      8210      8213      8214      8216      8211      8210      8213      8214
      8212      8210      8213      8214      8213      8214      8216      8217
      8213      8214      8216      8218      8213      8214      8216      8266
      8214      8216      8266      8267      8214      8216      8266      8268
      8214      8216      8266      8269      8215      8214      8216      8217
      8215      8214      8216      8218      8215      8214      8216      8266
      8216      8266      8269      8270      8216      8266      8269      8271
      8216      8266      8269      8272      8217      8216      8266      8267
      8217      8216      8266      8268      8217      8216      8266      8269
      8218      8216      8266      8267      8218      8216      8266      8268
      8218      8216      8266      8269      8219      8222      8225      8226
      8219      8222      8225      8227      8219      8222      8225      8228
      8220      8219      8222      8223      8220      8219      8222      8224
      8220      8219      8222      8225      8221      8219      8222      8223
      8221      8219      8222      8224      8221      8219      8222      8225
      8222      8225      8228      8229      8222      8225      8228      8230
      8222      8225      8228      8231      8223      8222      8225      8226
      8223      8222      8225      8227      8223      8222      8225      8228
      8224      8222      8225      8226      8224      8222      8225      8227
      8224      8222      8225      8228      8225      8228      8231      8232
      8225      8228      8231      8233      8225      8228      8231      8234
      8226      8225      8228      8229      8226      8225      8228      8230
      8226      8225      8228      8231      8227      8225      8228      8229
      8227      8225      8228      8230      8227      8225      8228      8231
      8228      8231      8234      8235      8228      8231      8234      8236
      8228      8231      8234      8237      8229      8228      8231      8232
      8229      8228      8231      8233      8229      8228      8231      8234
      8230      8228      8231      8232      8230      8228      8231      8233
      8230      8228      8231      8234      8231      8234      8237      8238
      8231      8234      8237      8239      8232      8231      8234      8235
      8232      8231      8234      8236      8232      8231      8234      8237
      8233      8231      8234      8235      8233      8231      8234      8236
      8233      8231      8234      8237      8234      8237      8239      8240
      8234      8237      8239      8241      8235      8234      8237      8238
      8235      8234      8237      8239      8236      8234      8237      8238
      8236      8234      8237      8239      8237      8239      8241      8242
      8237      8239      8241      8243      8237      8239      8241      8244
      8238      8237      8239      8240      8238      8237      8239      8241
      8239      8241      8244      8245      8239      8241      8244      8246
      8239      8241      8244      8247      8240      8239      8241      8242
      8240      8239      8241      8243      8240      8239      8241      8244
      8241      8244      8247      8248      8241      8244      8247      8249
      8241      8244      8247      8250      8242      8241      8244      8245
      8242      8241      8244      8246      8242      8241      8244      8247
      8243      8241      8244      8245      8243      8241      8244      8246
      8243      8241      8244      8247      8244      8247      8250      8251
      8244      8247      8250      8252      8244      8247      8250      8253
      8245      8244      8247      8248      8245      8244      8247      8249
      8245      8244      8247      8250      8246      8244      8247      8248
      8246      8244      8247      8249      8246      8244      8247      8250
      8247      8250      8253      8254      8247      8250      8253      8255
      8247      8250      8253      8256      8248      8247      8250      8251
      8248      8247      8250      8252      8248      8247      8250      8253
      8249      8247      8250      8251      8249      8247      8250      8252
      8249      8247      8250      8253      8250      8253      8256      8257
      8250      8253      8256      8258      8250      8253      8256      8259
      8251      8250      8253      8254      8251      8250      8253      8255
      8251      8250      8253      8256      8252      8250      8253      8254
      8252      8250      8253      8255      8252      8250      8253      8256
      8253      8256      8259      8260      8253      8256      8259      8261
      8253      8256      8259      8262      8254      8253      8256      8257
      8254      8253      8256      8258      8254      8253      8256      8259
      8255      8253      8256      8257      8255      8253      8256      8258
      8255      8253      8256      8259      8256      8259      8262      8263
      8256      8259      8262      8264      8256      8259      8262      8265
      8257      8256      8259      8260      8257      8256      8259      8261
      8257      8256      8259      8262      8258      8256      8259      8260
      8258      8256      8259      8261      8258      8256      8259      8262
      8260      8259      8262      8263      8260      8259      8262      8264
      8260      8259      8262      8265      8261      8259      8262      8263
      8261      8259      8262      8264      8261      8259      8262      8265
      8266      8269      8272      8273      8266      8269      8272      8274
      8266      8269      8272      8275      8267      8266      8269      8270
      8267      8266      8269      8271      8267      8266      8269      8272
      8268      8266      8269      8270      8268      8266      8269      8271
      8268      8266      8269      8272      8269      8272      8275      8276
      8269      8272      8275      8277      8269      8272      8275      8278
      8270      8269      8272      8273      8270      8269      8272      8274
      8270      8269      8272      8275      8271      8269      8272      8273
      8271      8269      8272      8274      8271      8269      8272      8275
      8272      8275      8278      8279      8272      8275      8278      8280
      8272      8275      8278      8281      8273      8272      8275      8276
      8273      8272      8275      8277      8273      8272      8275      8278
      8274      8272      8275      8276      8274      8272      8275      8277
      8274      8272      8275      8278      8275      8278      8281      8282
      8275      8278      8281      8283      8275      8278      8281      8284
      8276      8275      8278      8279      8276      8275      8278      8280
      8276      8275      8278      8281      8277      8275      8278      8279
      8277      8275      8278      8280      8277      8275      8278      8281
      8278      8281      8284      8285      8278      8281      8284      8286
      8278      8281      8284      8287      8279      8278      8281      8282
      8279      8278      8281      8283      8279      8278      8281      8284
      8280      8278      8281      8282      8280      8278      8281      8283
      8280      8278      8281      8284      8281      8284      8287      8288
      8281      8284      8287      8289      8281      8284      8287      8290
      8282      8281      8284      8285      8282      8281      8284      8286
      8282      8281      8284      8287      8283      8281      8284      8285
      8283      8281      8284      8286      8283      8281      8284      8287
      8284      8287      8290      8291      8284      8287      8290      8292
      8284      8287      8290      8293      8285      8284      8287      8288
      8285      8284      8287      8289      8285      8284      8287      8290
      8286      8284      8287      8288      8286      8284      8287      8289
      8286      8284      8287      8290      8287      8290      8293      8294
      8287      8290      8293      8295      8287      8290      8293      8296
      8288      8287      8290      8291      8288      8287      8290      8292
      8288      8287      8290      8293      8289      8287      8290      8291
      8289      8287      8290      8292      8289      8287      8290      8293
      8290      8293      8296      8297      8290      8293      8296      8298
      8290      8293      8296      8299      8291      8290      8293      8294
      8291      8290      8293      8295      8291      8290      8293      8296
      8292      8290      8293      8294      8292      8290      8293      8295
      8292      8290      8293      8296      8293      8296      8299      8300
      8293      8296      8299      8301      8293      8296      8299      8302
      8294      8293      8296      8297      8294      8293      8296      8298
      8294      8293      8296      8299      8295      8293      8296      8297
      8295      8293      8296      8298      8295      8293      8296      8299
      8296      8299      8302      8303      8296      8299      8302      8304
      8296      8299      8302      8305      8297      8296      8299      8300
      8297      8296      8299      8301      8297      8296      8299      8302
      8298      8296      8299      8300      8298      8296      8299      8301
      8298      8296      8299      8302      8299      8302      8305      8306
      8299      8302      8305      8307      8299      8302      8305      8308
      8300      8299      8302      8303      8300      8299      8302      8304
      8300      8299      8302      8305      8301      8299      8302      8303
      8301      8299      8302      8304      8301      8299      8302      8305
      8303      8302      8305      8306      8303      8302      8305      8307
      8303      8302      8305      8308      8304      8302      8305      8306
      8304      8302      8305      8307      8304      8302      8305      8308
      8309      8310      8325      8326      8309      8310      8325      8327
      8309      8310      8325      8331      8310      8309      8313      8314
      8310      8309      8313      8315      8310      8309      8313      8316
      8310      8309      8317      8318      8310      8309      8317      8319
      8310      8309      8317      8320      8310      8309      8321      8322
      8310      8309      8321      8323      8310      8309      8321      8324
      8310      8325      8331      8328      8311      8310      8309      8313
      8311      8310      8309      8317      8311      8310      8309      8321
      8311      8310      8325      8326      8311      8310      8325      8327
      8311      8310      8325      8331      8312      8310      8309      8313
      8312      8310      8309      8317      8312      8310      8309      8321
      8312      8310      8325      8326      8312      8310      8325      8327
      8312      8310      8325      8331      8313      8309      8310      8325
      8313      8309      8317      8318      8313      8309      8317      8319
      8313      8309      8317      8320      8313      8309      8321      8322
      8313      8309      8321      8323      8313      8309      8321      8324
      8314      8313      8309      8317      8314      8313      8309      8321
      8315      8313      8309      8317      8315      8313      8309      8321
      8316      8313      8309      8317      8316      8313      8309      8321
      8317      8309      8310      8325      8317      8309      8321      8322
      8317      8309      8321      8323      8317      8309      8321      8324
      8318      8317      8309      8321      8319      8317      8309      8321
      8320      8317      8309      8321      8321      8309      8310      8325
      8325      8331      8328      8329      8325      8331      8328      8330
      8325      8331      8328      8332      8326      8325      8331      8328
      8327      8325      8331      8328      8328      8332      8333      8334
      8328      8332      8333      8335      8328      8332      8333      8336
      8329      8328      8332      8333      8330      8328      8332      8333
      8331      8328      8332      8333      8332      8333      8336      8337
      8332      8333      8336      8338      8332      8333      8336      8344
      8333      8336      8338      8339      8333      8336      8344      8345
      8333      8336      8344      8346      8333      8336      8344      8347
      8334      8333      8336      8337      8334      8333      8336      8338
      8334      8333      8336      8344      8335      8333      8336      8337
      8335      8333      8336      8338      8335      8333      8336      8344
      8336      8338      8339      8340      8336      8338      8339      8341
      8336      8344      8347      8348      8337      8336      8338      8339
      8337      8336      8344      8345      8337      8336      8344      8346
      8337      8336      8344      8347      8338      8336      8344      8345
      8338      8336      8344      8346      8338      8336      8344      8347
      8338      8339      8341      8342      8338      8339      8341      8343
      8338      8339      8341      8353      8339      8338      8336      8344
      8339      8341      8353      8354      8339      8341      8353      8355
      8339      8341      8353      8356      8340      8339      8341      8342
      8340      8339      8341      8343      8340      8339      8341      8353
      8341      8353      8356      8357      8341      8353      8356      8358
      8341      8353      8356      8359      8342      8341      8353      8354
      8342      8341      8353      8355      8342      8341      8353      8356
      8343      8341      8353      8354      8343      8341      8353      8355
      8343      8341      8353      8356      8344      8347      8348      8349
      8344      8347      8348      8350      8345      8344      8347      8348
      8346      8344      8347      8348      8347      8348      8350      8351
      8347      8348      8350      8352      8347      8348      8350      8400
      8348      8350      8400      8401      8348      8350      8400      8402
      8348      8350      8400      8403      8349      8348      8350      8351
      8349      8348      8350      8352      8349      8348      8350      8400
      8350      8400      8403      8404      8350      8400      8403      8405
      8350      8400      8403      8406      8351      8350      8400      8401
      8351      8350      8400      8402      8351      8350      8400      8403
      8352      8350      8400      8401      8352      8350      8400      8402
      8352      8350      8400      8403      8353      8356      8359      8360
      8353      8356      8359      8361      8353      8356      8359      8362
      8354      8353      8356      8357      8354      8353      8356      8358
      8354      8353      8356      8359      8355      8353      8356      8357
      8355      8353      8356      8358      8355      8353      8356      8359
      8356      8359      8362      8363      8356      8359      8362      8364
      8356      8359      8362      8365      8357      8356      8359      8360
      8357      8356      8359      8361      8357      8356      8359      8362
      8358      8356      8359      8360      8358      8356      8359      8361
      8358      8356      8359      8362      8359      8362      8365      8366
      8359      8362      8365      8367      8359      8362      8365      8368
      8360      8359      8362      8363      8360      8359      8362      8364
      8360      8359      8362      8365      8361      8359      8362      8363
      8361      8359      8362      8364      8361      8359      8362      8365
      8362      8365      8368      8369      8362      8365      8368      8370
      8362      8365      8368      8371      8363      8362      8365      8366
      8363      8362      8365      8367      8363      8362      8365      8368
      8364      8362      8365      8366      8364      8362      8365      8367
      8364      8362      8365      8368      8365      8368      8371      8372
      8365      8368      8371      8373      8366      8365      8368      8369
      8366      8365      8368      8370      8366      8365      8368      8371
      8367      8365      8368      8369      8367      8365      8368      8370
      8367      8365      8368      8371      8368      8371      8373      8374
      8368      8371      8373      8375      8369      8368      8371      8372
      8369      8368      8371      8373      8370      8368      8371      8372
      8370      8368      8371      8373      8371      8373      8375      8376
      8371      8373      8375      8377      8371      8373      8375      8378
      8372      8371      8373      8374      8372      8371      8373      8375
      8373      8375      8378      8379      8373      8375      8378      8380
      8373      8375      8378      8381      8374      8373      8375      8376
      8374      8373      8375      8377      8374      8373      8375      8378
      8375      8378      8381      8382      8375      8378      8381      8383
      8375      8378      8381      8384      8376      8375      8378      8379
      8376      8375      8378      8380      8376      8375      8378      8381
      8377      8375      8378      8379      8377      8375      8378      8380
      8377      8375      8378      8381      8378      8381      8384      8385
      8378      8381      8384      8386      8378      8381      8384      8387
      8379      8378      8381      8382      8379      8378      8381      8383
      8379      8378      8381      8384      8380      8378      8381      8382
      8380      8378      8381      8383      8380      8378      8381      8384
      8381      8384      8387      8388      8381      8384      8387      8389
      8381      8384      8387      8390      8382      8381      8384      8385
      8382      8381      8384      8386      8382      8381      8384      8387
      8383      8381      8384      8385      8383      8381      8384      8386
      8383      8381      8384      8387      8384      8387      8390      8391
      8384      8387      8390      8392      8384      8387      8390      8393
      8385      8384      8387      8388      8385      8384      8387      8389
      8385      8384      8387      8390      8386      8384      8387      8388
      8386      8384      8387      8389      8386      8384      8387      8390
      8387      8390      8393      8394      8387      8390      8393      8395
      8387      8390      8393      8396      8388      8387      8390      8391
      8388      8387      8390      8392      8388      8387      8390      8393
      8389      8387      8390      8391      8389      8387      8390      8392
      8389      8387      8390      8393      8390      8393      8396      8397
      8390      8393      8396      8398      8390      8393      8396      8399
      8391      8390      8393      8394      8391      8390      8393      8395
      8391      8390      8393      8396      8392      8390      8393      8394
      8392      8390      8393      8395      8392      8390      8393      8396
      8394      8393      8396      8397      8394      8393      8396      8398
      8394      8393      8396      8399      8395      8393      8396      8397
      8395      8393      8396      8398      8395      8393      8396      8399
      8400      8403      8406      8407      8400      8403      8406      8408
      8400      8403      8406      8409      8401      8400      8403      8404
      8401      8400      8403      8405      8401      8400      8403      8406
      8402      8400      8403      8404      8402      8400      8403      8405
      8402      8400      8403      8406      8403      8406      8409      8410
      8403      8406      8409      8411      8403      8406      8409      8412
      8404      8403      8406      8407      8404      8403      8406      8408
      8404      8403      8406      8409      8405      8403      8406      8407
      8405      8403      8406      8408      8405      8403      8406      8409
      8406      8409      8412      8413      8406      8409      8412      8414
      8406      8409      8412      8415      8407      8406      8409      8410
      8407      8406      8409      8411      8407      8406      8409      8412
      8408      8406      8409      8410      8408      8406      8409      8411
      8408      8406      8409      8412      8409      8412      8415      8416
      8409      8412      8415      8417      8409      8412      8415      8418
      8410      8409      8412      8413      8410      8409      8412      8414
      8410      8409      8412      8415      8411      8409      8412      8413
      8411      8409      8412      8414      8411      8409      8412      8415
      8412      8415      8418      8419      8412      8415      8418      8420
      8412      8415      8418      8421      8413      8412      8415      8416
      8413      8412      8415      8417      8413      8412      8415      8418
      8414      8412      8415      8416      8414      8412      8415      8417
      8414      8412      8415      8418      8415      8418      8421      8422
      8415      8418      8421      8423      8415      8418      8421      8424
      8416      8415      8418      8419      8416      8415      8418      8420
      8416      8415      8418      8421      8417      8415      8418      8419
      8417      8415      8418      8420      8417      8415      8418      8421
      8418      8421      8424      8425      8418      8421      8424      8426
      8418      8421      8424      8427      8419      8418      8421      8422
      8419      8418      8421      8423      8419      8418      8421      8424
      8420      8418      8421      8422      8420      8418      8421      8423
      8420      8418      8421      8424      8421      8424      8427      8428
      8421      8424      8427      8429      8421      8424      8427      8430
      8422      8421      8424      8425      8422      8421      8424      8426
      8422      8421      8424      8427      8423      8421      8424      8425
      8423      8421      8424      8426      8423      8421      8424      8427
      8424      8427      8430      8431      8424      8427      8430      8432
      8424      8427      8430      8433      8425      8424      8427      8428
      8425      8424      8427      8429      8425      8424      8427      8430
      8426      8424      8427      8428      8426      8424      8427      8429
      8426      8424      8427      8430      8427      8430      8433      8434
      8427      8430      8433      8435      8427      8430      8433      8436
      8428      8427      8430      8431      8428      8427      8430      8432
      8428      8427      8430      8433      8429      8427      8430      8431
      8429      8427      8430      8432      8429      8427      8430      8433
      8430      8433      8436      8437      8430      8433      8436      8438
      8430      8433      8436      8439      8431      8430      8433      8434
      8431      8430      8433      8435      8431      8430      8433      8436
      8432      8430      8433      8434      8432      8430      8433      8435
      8432      8430      8433      8436      8433      8436      8439      8440
      8433      8436      8439      8441      8433      8436      8439      8442
      8434      8433      8436      8437      8434      8433      8436      8438
      8434      8433      8436      8439      8435      8433      8436      8437
      8435      8433      8436      8438      8435      8433      8436      8439
      8437      8436      8439      8440      8437      8436      8439      8441
      8437      8436      8439      8442      8438      8436      8439      8440
      8438      8436      8439      8441      8438      8436      8439      8442
      8443      8444      8459      8460      8443      8444      8459      8461
      8443      8444      8459      8465      8444      8443      8447      8448
      8444      8443      8447      8449      8444      8443      8447      8450
      8444      8443      8451      8452      8444      8443      8451      8453
      8444      8443      8451      8454      8444      8443      8455      8456
      8444      8443      8455      8457      8444      8443      8455      8458
      8444      8459      8465      8462      8445      8444      8443      8447
      8445      8444      8443      8451      8445      8444      8443      8455
      8445      8444      8459      8460      8445      8444      8459      8461
      8445      8444      8459      8465      8446      8444      8443      8447
      8446      8444      8443      8451      8446      8444      8443      8455
      8446      8444      8459      8460      8446      8444      8459      8461
      8446      8444      8459      8465      8447      8443      8444      8459
      8447      8443      8451      8452      8447      8443      8451      8453
      8447      8443      8451      8454      8447      8443      8455      8456
      8447      8443      8455      8457      8447      8443      8455      8458
      8448      8447      8443      8451      8448      8447      8443      8455
      8449      8447      8443      8451      8449      8447      8443      8455
      8450      8447      8443      8451      8450      8447      8443      8455
      8451      8443      8444      8459      8451      8443      8455      8456
      8451      8443      8455      8457      8451      8443      8455      8458
      8452      8451      8443      8455      8453      8451      8443      8455
      8454      8451      8443      8455      8455      8443      8444      8459
      8459      8465      8462      8463      8459      8465      8462      8464
      8459      8465      8462      8466      8460      8459      8465      8462
      8461      8459      8465      8462      8462      8466      8467      8468
      8462      8466      8467      8469      8462      8466      8467      8470
      8463      8462      8466      8467      8464      8462      8466      8467
      8465      8462      8466      8467      8466      8467      8470      8471
      8466      8467      8470      8472      8466      8467      8470      8478
      8467      8470      8472      8473      8467      8470      8478      8479
      8467      8470      8478      8480      8467      8470      8478      8481
      8468      8467      8470      8471      8468      8467      8470      8472
      8468      8467      8470      8478      8469      8467      8470      8471
      8469      8467      8470      8472      8469      8467      8470      8478
      8470      8472      8473      8474      8470      8472      8473      8475
      8470      8478      8481      8482      8471      8470      8472      8473
      8471      8470      8478      8479      8471      8470      8478      8480
      8471      8470      8478      8481      8472      8470      8478      8479
      8472      8470      8478      8480      8472      8470      8478      8481
      8472      8473      8475      8476      8472      8473      8475      8477
      8472      8473      8475      8487      8473      8472      8470      8478
      8473      8475      8487      8488      8473      8475      8487      8489
      8473      8475      8487      8490      8474      8473      8475      8476
      8474      8473      8475      8477      8474      8473      8475      8487
      8475      8487      8490      8491      8475      8487      8490      8492
      8475      8487      8490      8493      8476      8475      8487      8488
      8476      8475      8487      8489      8476      8475      8487      8490
      8477      8475      8487      8488      8477      8475      8487      8489
      8477      8475      8487      8490      8478      8481      8482      8483
      8478      8481      8482      8484      8479      8478      8481      8482
      8480      8478      8481      8482      8481      8482      8484      8485
      8481      8482      8484      8486      8481      8482      8484      8534
      8482      8484      8534      8535      8482      8484      8534      8536
      8482      8484      8534      8537      8483      8482      8484      8485
      8483      8482      8484      8486      8483      8482      8484      8534
      8484      8534      8537      8538      8484      8534      8537      8539
      8484      8534      8537      8540      8485      8484      8534      8535
      8485      8484      8534      8536      8485      8484      8534      8537
      8486      8484      8534      8535      8486      8484      8534      8536
      8486      8484      8534      8537      8487      8490      8493      8494
      8487      8490      8493      8495      8487      8490      8493      8496
      8488      8487      8490      8491      8488      8487      8490      8492
      8488      8487      8490      8493      8489      8487      8490      8491
      8489      8487      8490      8492      8489      8487      8490      8493
      8490      8493      8496      8497      8490      8493      8496      8498
      8490      8493      8496      8499      8491      8490      8493      8494
      8491      8490      8493      8495      8491      8490      8493      8496
      8492      8490      8493      8494      8492      8490      8493      8495
      8492      8490      8493      8496      8493      8496      8499      8500
      8493      8496      8499      8501      8493      8496      8499      8502
      8494      8493      8496      8497      8494      8493      8496      8498
      8494      8493      8496      8499      8495      8493      8496      8497
      8495      8493      8496      8498      8495      8493      8496      8499
      8496      8499      8502      8503      8496      8499      8502      8504
      8496      8499      8502      8505      8497      8496      8499      8500
      8497      8496      8499      8501      8497      8496      8499      8502
      8498      8496      8499      8500      8498      8496      8499      8501
      8498      8496      8499      8502      8499      8502      8505      8506
      8499      8502      8505      8507      8500      8499      8502      8503
      8500      8499      8502      8504      8500      8499      8502      8505
      8501      8499      8502      8503      8501      8499      8502      8504
      8501      8499      8502      8505      8502      8505      8507      8508
      8502      8505      8507      8509      8503      8502      8505      8506
      8503      8502      8505      8507      8504      8502      8505      8506
      8504      8502      8505      8507      8505      8507      8509      8510
      8505      8507      8509      8511      8505      8507      8509      8512
      8506      8505      8507      8508      8506      8505      8507      8509
      8507      8509      8512      8513      8507      8509      8512      8514
      8507      8509      8512      8515      8508      8507      8509      8510
      8508      8507      8509      8511      8508      8507      8509      8512
      8509      8512      8515      8516      8509      8512      8515      8517
      8509      8512      8515      8518      8510      8509      8512      8513
      8510      8509      8512      8514      8510      8509      8512      8515
      8511      8509      8512      8513      8511      8509      8512      8514
      8511      8509      8512      8515      8512      8515      8518      8519
      8512      8515      8518      8520      8512      8515      8518      8521
      8513      8512      8515      8516      8513      8512      8515      8517
      8513      8512      8515      8518      8514      8512      8515      8516
      8514      8512      8515      8517      8514      8512      8515      8518
      8515      8518      8521      8522      8515      8518      8521      8523
      8515      8518      8521      8524      8516      8515      8518      8519
      8516      8515      8518      8520      8516      8515      8518      8521
      8517      8515      8518      8519      8517      8515      8518      8520
      8517      8515      8518      8521      8518      8521      8524      8525
      8518      8521      8524      8526      8518      8521      8524      8527
      8519      8518      8521      8522      8519      8518      8521      8523
      8519      8518      8521      8524      8520      8518      8521      8522
      8520      8518      8521      8523      8520      8518      8521      8524
      8521      8524      8527      8528      8521      8524      8527      8529
      8521      8524      8527      8530      8522      8521      8524      8525
      8522      8521      8524      8526      8522      8521      8524      8527
      8523      8521      8524      8525      8523      8521      8524      8526
      8523      8521      8524      8527      8524      8527      8530      8531
      8524      8527      8530      8532      8524      8527      8530      8533
      8525      8524      8527      8528      8525      8524      8527      8529
      8525      8524      8527      8530      8526      8524      8527      8528
      8526      8524      8527      8529      8526      8524      8527      8530
      8528      8527      8530      8531      8528      8527      8530      8532
      8528      8527      8530      8533      8529      8527      8530      8531
      8529      8527      8530      8532      8529      8527      8530      8533
      8534      8537      8540      8541      8534      8537      8540      8542
      8534      8537      8540      8543      8535      8534      8537      8538
      8535      8534      8537      8539      8535      8534      8537      8540
      8536      8534      8537      8538      8536      8534      8537      8539
      8536      8534      8537      8540      8537      8540      8543      8544
      8537      8540      8543      8545      8537      8540      8543      8546
      8538      8537      8540      8541      8538      8537      8540      8542
      8538      8537      8540      8543      8539      8537      8540      8541
      8539      8537      8540      8542      8539      8537      8540      8543
      8540      8543      8546      8547      8540      8543      8546      8548
      8540      8543      8546      8549      8541      8540      8543      8544
      8541      8540      8543      8545      8541      8540      8543      8546
      8542      8540      8543      8544      8542      8540      8543      8545
      8542      8540      8543      8546      8543      8546      8549      8550
      8543      8546      8549      8551      8543      8546      8549      8552
      8544      8543      8546      8547      8544      8543      8546      8548
      8544      8543      8546      8549      8545      8543      8546      8547
      8545      8543      8546      8548      8545      8543      8546      8549
      8546      8549      8552      8553      8546      8549      8552      8554
      8546      8549      8552      8555      8547      8546      8549      8550
      8547      8546      8549      8551      8547      8546      8549      8552
      8548      8546      8549      8550      8548      8546      8549      8551
      8548      8546      8549      8552      8549      8552      8555      8556
      8549      8552      8555      8557      8549      8552      8555      8558
      8550      8549      8552      8553      8550      8549      8552      8554
      8550      8549      8552      8555      8551      8549      8552      8553
      8551      8549      8552      8554      8551      8549      8552      8555
      8552      8555      8558      8559      8552      8555      8558      8560
      8552      8555      8558      8561      8553      8552      8555      8556
      8553      8552      8555      8557      8553      8552      8555      8558
      8554      8552      8555      8556      8554      8552      8555      8557
      8554      8552      8555      8558      8555      8558      8561      8562
      8555      8558      8561      8563      8555      8558      8561      8564
      8556      8555      8558      8559      8556      8555      8558      8560
      8556      8555      8558      8561      8557      8555      8558      8559
      8557      8555      8558      8560      8557      8555      8558      8561
      8558      8561      8564      8565      8558      8561      8564      8566
      8558      8561      8564      8567      8559      8558      8561      8562
      8559      8558      8561      8563      8559      8558      8561      8564
      8560      8558      8561      8562      8560      8558      8561      8563
      8560      8558      8561      8564      8561      8564      8567      8568
      8561      8564      8567      8569      8561      8564      8567      8570
      8562      8561      8564      8565      8562      8561      8564      8566
      8562      8561      8564      8567      8563      8561      8564      8565
      8563      8561      8564      8566      8563      8561      8564      8567
      8564      8567      8570      8571      8564      8567      8570      8572
      8564      8567      8570      8573      8565      8564      8567      8568
      8565      8564      8567      8569      8565      8564      8567      8570
      8566      8564      8567      8568      8566      8564      8567      8569
      8566      8564      8567      8570      8567      8570      8573      8574
      8567      8570      8573      8575      8567      8570      8573      8576
      8568      8567      8570      8571      8568      8567      8570      8572
      8568      8567      8570      8573      8569      8567      8570      8571
      8569      8567      8570      8572      8569      8567      8570      8573
      8571      8570      8573      8574      8571      8570      8573      8575
      8571      8570      8573      8576      8572      8570      8573      8574
      8572      8570      8573      8575      8572      8570      8573      8576

       128 !NIMPHI: impropers
        31        30        33        32        40        39        42        41
       165       164       167       166       174       173       176       175
       299       298       301       300       308       307       310       309
       433       432       435       434       442       441       444       443
       567       566       569       568       576       575       578       577
       701       700       703       702       710       709       712       711
       835       834       837       836       844       843       846       845
       969       968       971       970       978       977       980       979
      1103      1102      1105      1104      1112      1111      1114      1113
      1237      1236      1239      1238      1246      1245      1248      1247
      1371      1370      1373      1372      1380      1379      1382      1381
      1505      1504      1507      1506      1514      1513      1516      1515
      1639      1638      1641      1640      1648      1647      1650      1649
      1773      1772      1775      1774      1782      1781      1784      1783
      1907      1906      1909      1908      1916      1915      1918      1917
      2041      2040      2043      2042      2050      2049      2052      2051
      2175      2174      2177      2176      2184      2183      2186      2185
      2309      2308      2311      2310      2318      2317      2320      2319
      2443      2442      2445      2444      2452      2451      2454      2453
      2577      2576      2579      2578      2586      2585      2588      2587
      2711      2710      2713      2712      2720      2719      2722      2721
      2845      2844      2847      2846      2854      2853      2856      2855
      2979      2978      2981      2980      2988      2987      2990      2989
      3113      3112      3115      3114      3122      3121      3124      3123
      3247      3246      3249      3248      3256      3255      3258      3257
      3381      3380      3383      3382      3390      3389      3392      3391
      3515      3514      3517      3516      3524      3523      3526      3525
      3649      3648      3651      3650      3658      3657      3660      3659
      3783      3782      3785      3784      3792      3791      3794      3793
      3917      3916      3919      3918      3926      3925      3928      3927
      4051      4050      4053      4052      4060      4059      4062      4061
      4185      4184      4187      4186      4194      4193      4196      4195
      4319      4318      4321      4320      4328      4327      4330      4329
      4453      4452      4455      4454      4462      4461      4464      4463
      4587      4586      4589      4588      4596      4595      4598      4597
      4721      4720      4723      4722      4730      4729      4732      4731
      4855      4854      4857      4856      4864      4863      4866      4865
      4989      4988      4991      4990      4998      4997      5000      4999
      5123      5122      5125      5124      5132      5131      5134      5133
      5257      5256      5259      5258      5266      5265      5268      5267
      5391      5390      5393      5392      5400      5399      5402      5401
      5525      5524      5527      5526      5534      5533      5536      5535
      5659      5658      5661      5660      5668      5667      5670      5669
      5793      5792      5795      5794      5802      5801      5804      5803
      5927      5926      5929      5928      5936      5935      5938      5937
      6061      6060      6063      6062      6070      6069      6072      6071
      6195      6194      6197      6196      6204      6203      6206      6205
      6329      6328      6331      6330      6338      6337      6340      6339
      6463      6462      6465      6464      6472      6471      6474      6473
      6597      6596      6599      6598      6606      6605      6608      6607
      6731      6730      6733      6732      6740      6739      6742      6741
      6865      6864      6867      6866      6874      6873      6876      6875
      6999      6998      7001      7000      7008      7007      7010      7009
      7133      7132      7135      7134      7142      7141      7144      7143
      7267      7266      7269      7268      7276      7275      7278      7277
      7401      7400      7403      7402      7410      7409      7412      7411
      7535      7534      7537      7536      7544      7543      7546      7545
      7669      7668      7671      7670      7678      7677      7680      7679
      7803      7802      7805      7804      7812      7811      7814      7813
      7937      7936      7939      7938      7946      7945      7948      7947
      8071      8070      8073      8072      8080      8079      8082      8081
      8205      8204      8207      8206      8214      8213      8216      8215
      8339      8338      8341      8340      8348      8347      8350      8349
      8473      8472      8475      8474      8482      8481      8484      8483

         0 !NDON: donors


         0 !NACC: acceptors


         0 !NNB

         0         0         0         0         0         0         0         0
         0         0         0         0         0         0         0         0
         0         0         0         0         0         0         0         0
         0         0         0         0         0         0         0         0
         0         0         0         0         0         0         0         0
         0         0         0         0         0         0         0         0
         0         0         0         0         0         0         0         0
         0         0         0         0         0         0         0         0
         0         0         0         0         0         0         0         0
         0         0         0         0         0         0         0         0
         0         0         0         0         0         0         0         0
         0         0         0         0         0         0         0         0
         0         0         0         0         0         0         0         0
         0         0         0         0         0         0         0         0
         0         0         0         0         0         0         0         0
         0         0         0         0         0         0         0         0
         0         0         0         0         0         0         0         0
         0         0         0         0         0         0         0         0
         0         0         0         0         0         0         0         0
         0         0         0         0         0         0         0         0
         0         0         0         0         0         0         0         0
         0         0         0         0         0         0         0         0
         0         0         0         0         0         0         0         0
         0         0         0         0         0         0         0         0
         0         0         0         0         0         0         0         0
         0         0         0         0         0         0         0         0
         0         0         0         0         0         0         0         0
         0         0         0         0         0         0         0         0
         0         0         0         0         0         0         0         0
         0         0         0         0         0         0         0         0
         0         0         0         0         0         0         0         0
         0         0         0         0         0         0         0         0
         0         0         0         0         0         0         0         0
         0         0         0         0         0         0         0         0
         0         0         0         0         0         0         0         0
         0         0         0         0         0         0         0         0
         0         0         0         0         0         0         0         0
         0         0         0         0         0         0         0         0
         0         0         0         0         0         0         0         0
         0         0         0         0         0         0         0         0
         0         0         0         0         0         0         0         0
         0         0         0         0         0         0         0         0
         0         0         0         0         0         0         0         0
         0         0         0         0         0         0         0         0
         0         0         0         0         0         0         0         0
         0         0         0         0         0         0         0         0
         0         0         0         0         0         0         0         0
         0         0         0         0         0         0         0         0
         0         0         0         0         0         0         0         0
         0         0         0         0         0         0         0         0
         0         0         0         0         0         0         0         0
         0         0         0         0         0         0         0         0
         0         0         0         0         0         0         0         0
         0         0         0         0         0         0         0         0
         0         0         0         0         0         0         0         0
         0         0         0         0         0         0         0         0
         0         0         0         0         0         0         0         0
         0         0         0         0         0         0         0         0
         0         0         0         0         0         0         0         0
         0         0         0         0         0         0         0         0
         0         0         0         0         0         0         0         0
         0         0         0         0         0         0         0         0
         0         0         0         0         0         0         0         0
         0         0         0         0         0         0         0         0
         0         0         0         0         0         0         0         0
         0         0         0         0         0         0         0         0
         0         0         0         0         0         0         0         0
         0         0         0         0         0         0         0         0
         0         0         0         0         0         0         0         0
         0         0         0         0         0         0         0         0
         0         0         0         0         0         0         0         0
         0         0         0         0         0         0         0         0
         0         0         0         0         0         0         0         0
         0         0         0         0         0         0         0         0
         0         0         0         0         0         0         0         0
         0         0         0         0         0         0         0         0
         0         0         0         0         0         0         0         0
         0         0         0         0         0         0         0         0
         0         0         0         0         0         0         0         0
         0         0         0         0         0         0         0         0
         0         0         0         0         0         0         0         0
         0         0         0         0         0         0         0         0
         0         0         0         0         0         0         0         0
         0         0         0         0         0         0         0         0
         0         0         0         0         0         0         0         0
         0         0         0         0         0         0         0         0
         0         0         0         0         0         0         0         0
         0         0         0         0         0         0         0         0
         0         0         0         0         0         0         0         0
         0         0         0         0         0         0         0         0
         0         0         0         0         0         0         0         0
         0         0         0         0         0         0         0         0
         0         0         0         0         0         0         0         0
         0         0         0         0         0         0         0         0
         0         0         0         0         0         0         0         0
         0         0         0         0         0         0         0         0
         0         0         0         0         0         0         0         0
         0         0         0         0         0         0         0         0
         0         0         0         0         0         0         0         0
         0         0         0         0         0         0         0         0
         0         0         0         0         0         0         0         0
         0         0         0         0         0         0         0         0
         0         0         0         0         0         0         0         0
         0         0         0         0         0         0         0         0
         0         0         0         0         0         0         0         0
         0         0         0         0         0         0         0         0
         0         0         0         0         0         0         0         0
         0         0         0         0         0         0         0         0
         0         0         0         0         0         0         0         0
         0         0         0         0         0         0         0         0
         0         0         0         0         0         0         0         0
         0         0         0         0         0         0         0         0
         0         0         0         0         0         0         0         0
         0         0         0         0         0         0         0         0
         0         0         0         0         0         0         0         0
         0         0         0         0         0         0         0         0
         0         0         0         0         0         0         0         0
         0         0         0         0         0         0         0         0
         0         0         0         0         0         0         0         0
         0         0         0         0         0         0         0         0
         0         0         0         0         0         0         0         0
         0         0         0         0         0         0         0         0
         0         0         0         0         0         0         0         0
         0         0         0         0         0         0         0         0
         0         0         0         0         0         0         0         0
         0         0         0         0         0         0         0         0
         0         0         0         0         0         0         0         0
         0         0         0         0         0         0         0         0
         0         0         0         0         0         0         0         0
         0         0         0         0         0         0         0         0
         0         0         0         0         0         0         0         0
         0         0         0         0         0         0         0         0
         0         0         0         0         0         0         0         0
         0         0         0         0         0         0         0         0
         0         0         0         0         0         0         0         0
         0         0         0         0         0         0         0         0
         0         0         0         0         0         0         0         0
         0         0         0         0         0         0         0         0
         0         0         0         0         0         0         0         0
         0         0         0         0         0         0         0         0
         0         0         0         0         0         0         0         0
         0         0         0         0         0         0         0         0
         0         0         0         0         0         0         0         0
         0         0         0         0         0         0         0         0
         0         0         0         0         0         0         0         0
         0         0         0         0         0         0         0         0
         0         0         0         0         0         0         0         0
         0         0         0         0         0         0         0         0
         0         0         0         0         0         0         0         0
         0         0         0         0         0         0         0         0
         0         0         0         0         0         0         0         0
         0         0         0         0         0         0         0         0
         0         0         0         0         0         0         0         0
         0         0         0         0         0         0         0         0
         0         0         0         0         0         0         0         0
         0         0         0         0         0         0         0         0
         0         0         0         0         0         0         0         0
         0         0         0         0         0         0         0         0
         0         0         0         0         0         0         0         0
         0         0         0         0         0         0         0         0
         0         0         0         0         0         0         0         0
         0         0         0         0         0         0         0         0
         0         0         0         0         0         0         0         0
         0         0         0         0         0         0         0         0
         0         0         0         0         0         0         0         0
         0         0         0         0         0         0         0         0
         0         0         0         0         0         0         0         0
         0         0         0         0         0         0         0         0
         0         0         0         0         0         0         0         0
         0         0         0         0         0         0         0         0
         0         0         0         0         0         0         0         0
         0         0         0         0         0         0         0         0
         0         0         0         0         0         0         0         0
         0         0         0         0         0         0         0         0
         0         0         0         0         0         0         0         0
         0         0         0         0         0         0         0         0
         0         0         0         0         0         0         0         0
         0         0         0         0         0         0         0         0
         0         0         0         0         0         0         0         0
         0         0         0         0         0         0         0         0
         0         0         0         0         0         0         0         0
         0         0         0         0         0         0         0         0
         0         0         0         0         0         0         0         0
         0         0         0         0         0         0         0         0
         0         0         0         0         0         0         0         0
         0         0         0         0         0         0         0         0
         0         0         0         0         0         0         0         0
         0         0         0         0         0         0         0         0
         0         0         0         0         0         0         0         0
         0         0         0         0         0         0         0         0
         0         0         0         0         0         0         0         0
         0         0         0         0         0         0         0         0
         0         0         0         0         0         0         0         0
         0         0         0         0         0         0         0         0
         0         0         0         0         0         0         0         0
         0         0         0         0         0         0         0         0
         0         0         0         0         0         0         0         0
         0         0         0         0         0         0         0         0
         0         0         0         0         0         0         0         0
         0         0         0         0         0         0         0         0
         0         0         0         0         0         0         0         0
         0         0         0         0         0         0         0         0
         0         0         0         0         0         0         0         0
         0         0         0         0         0         0         0         0
         0         0         0         0         0         0         0         0
         0         0         0         0         0         0         0         0
         0         0         0         0         0         0         0         0
         0         0         0         0         0         0         0         0
         0         0         0         0         0         0         0         0
         0         0         0         0         0         0         0         0
         0         0         0         0         0         0         0         0
         0         0         0         0         0         0         0         0
         0         0         0         0         0         0         0         0
         0         0         0         0         0         0         0         0
         0         0         0         0         0         0         0         0
         0         0         0         0         0         0         0         0
         0         0         0         0         0         0         0         0
         0         0         0         0         0         0         0         0
         0         0         0         0         0         0         0         0
         0         0         0         0         0         0         0         0
         0         0         0         0         0         0         0         0
         0         0         0         0         0         0         0         0
         0         0         0         0         0         0         0         0
         0         0         0         0         0         0         0         0
         0         0         0         0         0         0         0         0
         0         0         0         0         0         0         0         0
         0         0         0         0         0         0         0         0
         0         0         0         0         0         0         0         0
         0         0         0         0         0         0         0         0
         0         0         0         0         0         0         0         0
         0         0         0         0         0         0         0         0
         0         0         0         0         0         0         0         0
         0         0         0         0         0         0         0         0
         0         0         0         0         0         0         0         0
         0         0         0         0         0         0         0         0
         0         0         0         0         0         0         0         0
         0         0         0         0         0         0         0         0
         0         0         0         0         0         0         0         0
         0         0         0         0         0         0         0         0
         0         0         0         0         0         0         0         0
         0         0         0         0         0         0         0         0
         0         0         0         0         0         0         0         0
         0         0         0         0         0         0         0         0
         0         0         0         0         0         0         0         0
         0         0         0         0         0         0         0         0
         0         0         0         0         0         0         0         0
         0         0         0         0         0         0         0         0
         0         0         0         0         0         0         0         0
         0         0         0         0         0         0         0         0
         0         0         0         0         0         0         0         0
         0         0         0         0         0         0         0         0
         0         0         0         0         0         0         0         0
         0         0         0         0         0         0         0         0
         0         0         0         0         0         0         0         0
         0         0         0         0         0         0         0         0
         0         0         0         0         0         0         0         0
         0         0         0         0         0         0         0         0
         0         0         0         0         0         0         0         0
         0         0         0         0         0         0         0         0
         0         0         0         0         0         0         0         0
         0         0         0         0         0         0         0         0
         0         0         0         0         0         0         0         0
         0         0         0         0         0         0         0         0
         0         0         0         0         0         0         0         0
         0         0         0         0         0         0         0         0
         0         0         0         0         0         0         0         0
         0         0         0         0         0         0         0         0
         0         0         0         0         0         0         0         0
         0         0         0         0         0         0         0         0
         0         0         0         0         0         0         0         0
         0         0         0         0         0         0         0         0
         0         0         0         0         0         0         0         0
         0         0         0         0         0         0         0         0
         0         0         0         0         0         0         0         0
         0         0         0         0         0         0         0         0
         0         0         0         0         0         0         0         0
         0         0         0         0         0         0         0         0
         0         0         0         0         0         0         0         0
         0         0         0         0         0         0         0         0
         0         0         0         0         0         0         0         0
         0         0         0         0         0         0         0         0
         0         0         0         0         0         0         0         0
         0         0         0         0         0         0         0         0
         0         0         0         0         0         0         0         0
         0         0         0         0         0         0         0         0
         0         0         0         0         0         0         0         0
         0         0         0         0         0         0         0         0
         0         0         0         0         0         0         0         0
         0         0         0         0         0         0         0         0
         0         0         0         0         0         0         0         0
         0         0         0         0         0         0         0         0
         0         0         0         0         0         0         0         0
         0         0         0         0         0         0         0         0
         0         0         0         0         0         0         0         0
         0         0         0         0         0         0         0         0
         0         0         0         0         0         0         0         0
         0         0         0         0         0         0         0         0
         0         0         0         0         0         0         0         0
         0         0         0         0         0         0         0         0
         0         0         0         0         0         0         0         0
         0         0         0         0         0         0         0         0
         0         0         0         0         0         0         0         0
         0         0         0         0         0         0         0         0
         0         0         0         0         0         0         0         0
         0         0         0         0         0         0         0         0
         0         0         0         0         0         0         0         0
         0         0         0         0         0         0         0         0
         0         0         0         0         0         0         0         0
         0         0         0         0         0         0         0         0
         0         0         0         0         0         0         0         0
         0         0         0         0         0         0         0         0
         0         0         0         0         0         0         0         0
         0         0         0         0         0         0         0         0
         0         0         0         0         0         0         0         0
         0         0         0         0         0         0         0         0
         0         0         0         0         0         0         0         0
         0         0         0         0         0         0         0         0
         0         0         0         0         0         0         0         0
         0         0         0         0         0         0         0         0
         0         0         0         0         0         0         0         0
         0         0         0         0         0         0         0         0
         0         0         0         0         0         0         0         0
         0         0         0         0         0         0         0         0
         0         0         0         0         0         0         0         0
         0         0         0         0         0         0         0         0
         0         0         0         0         0         0         0         0
         0         0         0         0         0         0         0         0
         0         0         0         0         0         0         0         0
         0         0         0         0         0         0         0         0
         0         0         0         0         0         0         0         0
         0         0         0         0         0         0         0         0
         0         0         0         0         0         0         0         0
         0         0         0         0         0         0         0         0
         0         0         0         0         0         0         0         0
         0         0         0         0         0         0         0         0
         0         0         0         0         0         0         0         0
         0         0         0         0         0         0         0         0
         0         0         0         0         0         0         0         0
         0         0         0         0         0         0         0         0
         0         0         0         0         0         0         0         0
         0         0         0         0         0         0         0         0
         0         0         0         0         0         0         0         0
         0         0         0         0         0         0         0         0
         0         0         0         0         0         0         0         0
         0         0         0         0         0         0         0         0
         0         0         0         0         0         0         0         0
         0         0         0         0         0         0         0         0
         0         0         0         0         0         0         0         0
         0         0         0         0         0         0         0         0
         0         0         0         0         0         0         0         0
         0         0         0         0         0         0         0         0
         0         0         0         0         0         0         0         0
         0         0         0         0         0         0         0         0
         0         0         0         0         0         0         0         0
         0         0         0         0         0         0         0         0
         0         0         0         0         0         0         0         0
         0         0         0         0         0         0         0         0
         0         0         0         0         0         0         0         0
         0         0         0         0         0         0         0         0
         0         0         0         0         0         0         0         0
         0         0         0         0         0         0         0         0
         0         0         0         0         0         0         0         0
         0         0         0         0         0         0         0         0
         0         0         0         0         0         0         0         0
         0         0         0         0         0         0         0         0
         0         0         0         0         0         0         0         0
         0         0         0         0         0         0         0         0
         0         0         0         0         0         0         0         0
         0         0         0         0         0         0         0         0
         0         0         0         0         0         0         0         0
         0         0         0         0         0         0         0         0
         0         0         0         0         0         0         0         0
         0         0         0         0         0         0         0         0
         0         0         0         0         0         0         0         0
         0         0         0         0         0         0         0         0
         0         0         0         0         0         0         0         0
         0         0         0         0         0         0         0         0
         0         0         0         0         0         0         0         0
         0         0         0         0         0         0         0         0
         0         0         0         0         0         0         0         0
         0         0         0         0         0         0         0         0
         0         0         0         0         0         0         0         0
         0         0         0         0         0         0         0         0
         0         0         0         0         0         0         0         0
         0         0         0         0         0         0         0         0
         0         0         0         0         0         0         0         0
         0         0         0         0         0         0         0         0
         0         0         0         0         0         0         0         0
         0         0         0         0         0         0         0         0
         0         0         0         0         0         0         0         0
         0         0         0         0         0         0         0         0
         0         0         0         0         0         0         0         0
         0         0         0         0         0         0         0         0
         0         0         0         0         0         0         0         0
         0         0         0         0         0         0         0         0
         0         0         0         0         0         0         0         0
         0         0         0         0         0         0         0         0
         0         0         0         0         0         0         0         0
         0         0         0         0         0         0         0         0
         0         0         0         0         0         0         0         0
         0         0         0         0         0         0         0         0
         0         0         0         0         0         0         0         0
         0         0         0         0         0         0         0         0
         0         0         0         0         0         0         0         0
         0         0         0         0         0         0         0         0
         0         0         0         0         0         0         0         0
         0         0         0         0         0         0         0         0
         0         0         0         0         0         0         0         0
         0         0         0         0         0         0         0         0
         0         0         0         0         0         0         0         0
         0         0         0         0         0         0         0         0
         0         0         0         0         0         0         0         0
         0         0         0         0         0         0         0         0
         0         0         0         0         0         0         0         0
         0         0         0         0         0         0         0         0
         0         0         0         0         0         0         0         0
         0         0         0         0         0         0         0         0
         0         0         0         0         0         0         0         0
         0         0         0         0         0         0         0         0
         0         0         0         0         0         0         0         0
         0         0         0         0         0         0         0         0
         0         0         0         0         0         0         0         0
         0         0         0         0         0         0         0         0
         0         0         0         0         0         0         0         0
         0         0         0         0         0         0         0         0
         0         0         0         0         0         0         0         0
         0         0         0         0         0         0         0         0
         0         0         0         0         0         0         0         0
         0         0         0         0         0         0         0         0
         0         0         0         0         0         0         0         0
         0         0         0         0         0         0         0         0
         0         0         0         0         0         0         0         0
         0         0         0         0         0         0         0         0
         0         0         0         0         0         0         0         0
         0         0         0         0         0         0         0         0
         0         0         0         0         0         0         0         0
         0         0         0         0         0         0         0         0
         0         0         0         0         0         0         0         0
         0         0         0         0         0         0         0         0
         0         0         0         0         0         0         0         0
         0         0         0         0         0         0         0         0
         0         0         0         0         0         0         0         0
         0         0         0         0         0         0         0         0
         0         0         0         0         0         0         0         0
         0         0         0         0         0         0         0         0
         0         0         0         0         0         0         0         0
         0         0         0         0         0         0         0         0
         0         0         0         0         0         0         0         0
         0         0         0         0         0         0         0         0
         0         0         0         0         0         0         0         0
         0         0         0         0         0         0         0         0
         0         0         0         0         0         0         0         0
         0         0         0         0         0         0         0         0
         0         0         0         0         0         0         0         0
         0         0         0         0         0         0         0         0
         0         0         0         0         0         0         0         0
         0         0         0         0         0         0         0         0
         0         0         0         0         0         0         0         0
         0         0         0         0         0         0         0         0
         0         0         0         0         0         0         0         0
         0         0         0         0         0         0         0         0
         0         0         0         0         0         0         0         0
         0         0         0         0         0         0         0         0
         0         0         0         0         0         0         0         0
         0         0         0         0         0         0         0         0
         0         0         0         0         0         0         0         0
         0         0         0         0         0         0         0         0
         0         0         0         0         0         0         0         0
         0         0         0         0         0         0         0         0
         0         0         0         0         0         0         0         0
         0         0         0         0         0         0         0         0
         0         0         0         0         0         0         0         0
         0         0         0         0         0         0         0         0
         0         0         0         0         0         0         0         0
         0         0         0         0         0         0         0         0
         0         0         0         0         0         0         0         0
         0         0         0         0         0         0         0         0
         0         0         0         0         0         0         0         0
         0         0         0         0         0         0         0         0
         0         0         0         0         0         0         0         0
         0         0         0         0         0         0         0         0
         0         0         0         0         0         0         0         0
         0         0         0         0         0         0         0         0
         0         0         0         0         0         0         0         0
         0         0         0         0         0         0         0         0
         0         0         0         0         0         0         0         0
         0         0         0         0         0         0         0         0
         0         0         0         0         0         0         0         0
         0         0         0         0         0         0         0         0
         0         0         0         0         0         0         0         0
         0         0         0         0         0         0         0         0
         0         0         0         0         0         0         0         0
         0         0         0         0         0         0         0         0
         0         0         0         0         0         0         0         0
         0         0         0         0         0         0         0         0
         0         0         0         0         0         0         0         0
         0         0         0         0         0         0         0         0
         0         0         0         0         0         0         0         0
         0         0         0         0         0         0         0         0
         0         0         0         0         0         0         0         0
         0         0         0         0         0         0         0         0
         0         0         0         0         0         0         0         0
         0         0         0         0         0         0         0         0
         0         0         0         0         0         0         0         0
         0         0         0         0         0         0         0         0
         0         0         0         0         0         0         0         0
         0         0         0         0         0         0         0         0
         0         0         0         0         0         0         0         0
         0         0         0         0         0         0         0         0
         0         0         0         0         0         0         0         0
         0         0         0         0         0         0         0         0
         0         0         0         0         0         0         0         0
         0         0         0         0         0         0         0         0
         0         0         0         0         0         0         0         0
         0         0         0         0         0         0         0         0
         0         0         0         0         0         0         0         0
         0         0         0         0         0         0         0         0
         0         0         0         0         0         0         0         0
         0         0         0         0         0         0         0         0
         0         0         0         0         0         0         0         0
         0         0         0         0         0         0         0         0
         0         0         0         0         0         0         0         0
         0         0         0         0         0         0         0         0
         0         0         0         0         0         0         0         0
         0         0         0         0         0         0         0         0
         0         0         0         0         0         0         0         0
         0         0         0         0         0         0         0         0
         0         0         0         0         0         0         0         0
         0         0         0         0         0         0         0         0
         0         0         0         0         0         0         0         0
         0         0         0         0         0         0         0         0
         0         0         0         0         0         0         0         0
         0         0         0         0         0         0         0         0
         0         0         0         0         0         0         0         0
         0         0         0         0         0         0         0         0
         0         0         0         0         0         0         0         0
         0         0         0         0         0         0         0         0
         0         0         0         0         0         0         0         0
         0         0         0         0         0         0         0         0
         0         0         0         0         0         0         0         0
         0         0         0         0         0         0         0         0
         0         0         0         0         0         0         0         0
         0         0         0         0         0         0         0         0
         0         0         0         0         0         0         0         0
         0         0         0         0         0         0         0         0
         0         0         0         0         0         0         0         0
         0         0         0         0         0         0         0         0
         0         0         0         0         0         0         0         0
         0         0         0         0         0         0         0         0
         0         0         0         0         0         0         0         0
         0         0         0         0         0         0         0         0
         0         0         0         0         0         0         0         0
         0         0         0         0         0         0         0         0
         0         0         0         0         0         0         0         0
         0         0         0         0         0         0         0         0
         0         0         0         0         0         0         0         0
         0         0         0         0         0         0         0         0
         0         0         0         0         0         0         0         0
         0         0         0         0         0         0         0         0
         0         0         0         0         0         0         0         0
         0         0         0         0         0         0         0         0
         0         0         0         0         0         0         0         0
         0         0         0         0         0         0         0         0
         0         0         0         0         0         0         0         0
         0         0         0         0         0         0         0         0
         0         0         0         0         0         0         0         0
         0         0         0         0         0         0         0         0
         0         0         0         0         0         0         0         0
         0         0         0         0         0         0         0         0
         0         0         0         0         0         0         0         0
         0         0         0         0         0         0         0         0
         0         0         0         0         0         0         0         0
         0         0         0         0         0         0         0         0
         0         0         0         0         0         0         0         0
         0         0         0         0         0         0         0         0
         0         0         0         0         0         0         0         0
         0         0         0         0         0         0         0         0
         0         0         0         0         0         0         0         0
         0         0         0         0         0         0         0         0
         0         0         0         0         0         0         0         0
         0         0         0         0         0         0         0         0
         0         0         0         0         0         0         0         0
         0         0         0         0         0         0         0         0
         0         0         0         0         0         0         0         0
         0         0         0         0         0         0         0         0
         0         0         0         0         0         0         0         0
         0         0         0         0         0         0         0         0
         0         0         0         0         0         0         0         0
         0         0         0         0         0         0         0         0
         0         0         0         0         0         0         0         0
         0         0         0         0         0         0         0         0
         0         0         0         0         0         0         0         0
         0         0         0         0         0         0         0         0
         0         0         0         0         0         0         0         0
         0         0         0         0         0         0         0         0
         0         0         0         0         0         0         0         0
         0         0         0         0         0         0         0         0
         0         0         0         0         0         0         0         0
         0         0         0         0         0         0         0         0
         0         0         0         0         0         0         0         0
         0         0         0         0         0         0         0         0
         0         0         0         0         0         0         0         0
         0         0         0         0         0         0         0         0
         0         0         0         0         0         0         0         0
         0         0         0         0         0         0         0         0
         0         0         0         0         0         0         0         0
         0         0         0         0         0         0         0         0
         0         0         0         0         0         0         0         0
         0         0         0         0         0         0         0         0
         0         0         0         0         0         0         0         0
         0         0         0         0         0         0         0         0
         0         0         0         0         0         0         0         0
         0         0         0         0         0         0         0         0
         0         0         0         0         0         0         0         0
         0         0         0         0         0         0         0         0
         0         0         0         0         0         0         0         0
         0         0         0         0         0         0         0         0
         0         0         0         0         0         0         0         0
         0         0         0         0         0         0         0         0
         0         0         0         0         0         0         0         0
         0         0         0         0         0         0         0         0
         0         0         0         0         0         0         0         0
         0         0         0         0         0         0         0         0
         0         0         0         0         0         0         0         0
         0         0         0         0         0         0         0         0
         0         0         0         0         0         0         0         0
         0         0         0         0         0         0         0         0
         0         0         0         0         0         0         0         0
         0         0         0         0         0         0         0         0
         0         0         0         0         0         0         0         0
         0         0         0         0         0         0         0         0
         0         0         0         0         0         0         0         0
         0         0         0         0         0         0         0         0
         0         0         0         0         0         0         0         0
         0         0         0         0         0         0         0         0
         0         0         0         0         0         0         0         0
         0         0         0         0         0         0         0         0
         0         0         0         0         0         0         0         0
         0         0         0         0         0         0         0         0
         0         0         0         0         0         0         0         0
         0         0         0         0         0         0         0         0
         0         0         0         0         0         0         0         0
         0         0         0         0         0         0         0         0
         0         0         0         0         0         0         0         0
         0         0         0         0         0         0         0         0
         0         0         0         0         0         0         0         0
         0         0         0         0         0         0         0         0
         0         0         0         0         0         0         0         0
         0         0         0         0         0         0         0         0
         0         0         0         0         0         0         0         0
         0         0         0         0         0         0         0         0
         0         0         0         0         0         0         0         0
         0         0         0         0         0         0         0         0
         0         0         0         0         0         0         0         0
         0         0         0         0         0         0         0         0
         0         0         0         0         0         0         0         0
         0         0         0         0         0         0         0         0
         0         0         0         0         0         0         0         0
         0         0         0         0         0         0         0         0
         0         0         0         0         0         0         0         0
         0         0         0         0         0         0         0         0
         0         0         0         0         0         0         0         0
         0         0         0         0         0         0         0         0
         0         0         0         0         0         0         0         0
         0         0         0         0         0         0         0         0
         0         0         0         0         0         0         0         0
         0         0         0         0         0         0         0         0
         0         0         0         0         0         0         0         0
         0         0         0         0         0         0         0         0
         0         0         0         0         0         0         0         0
         0         0         0         0         0         0         0         0
         0         0         0         0         0         0         0         0
         0         0         0         0         0         0         0         0
         0         0         0         0         0         0         0         0
         0         0         0         0         0         0         0         0
         0         0         0         0         0         0         0         0
         0         0         0         0         0         0         0         0
         0         0         0         0         0         0         0         0
         0         0         0         0         0         0         0         0
         0         0         0         0         0         0         0         0
         0         0         0         0         0         0         0         0
         0         0         0         0         0         0         0         0
         0         0         0         0         0         0         0         0
         0         0         0         0         0         0         0         0
         0         0         0         0         0         0         0         0
         0         0         0         0         0         0         0         0
         0         0         0         0         0         0         0         0
         0         0         0         0         0         0         0         0
         0         0         0         0         0         0         0         0
         0         0         0         0         0         0         0         0
         0         0         0         0         0         0         0         0
         0         0         0         0         0         0         0         0
         0         0         0         0         0         0         0         0
         0         0         0         0         0         0         0         0
         0         0         0         0         0         0         0         0
         0         0         0         0         0         0         0         0
         0         0         0         0         0         0         0         0
         0         0         0         0         0         0         0         0
         0         0         0         0         0         0         0         0
         0         0         0         0         0         0         0         0
         0         0         0         0         0         0         0         0
         0         0         0         0         0         0         0         0
         0         0         0         0         0         0         0         0
         0         0         0         0         0         0         0         0
         0         0         0         0         0         0         0         0
         0         0         0         0         0         0         0         0
         0         0         0         0         0         0         0         0
         0         0         0         0         0         0         0         0
         0         0         0         0         0         0         0         0
         0         0         0         0         0         0         0         0
         0         0         0         0         0         0         0         0
         0         0         0         0         0         0         0         0
         0         0         0         0         0         0         0         0
         0         0         0         0         0         0         0         0
         0         0         0         0         0         0         0         0
         0         0         0         0         0         0         0         0
         0         0         0         0         0         0         0         0
         0         0         0         0         0         0         0         0
         0         0         0         0         0         0         0         0
         0         0         0         0         0         0         0         0
         0         0         0         0         0         0         0         0
         0         0         0         0         0         0         0         0
         0         0         0         0         0         0         0         0
         0         0         0         0         0         0         0         0
         0         0         0         0         0         0         0         0
         0         0         0         0         0         0         0         0
         0         0         0         0         0         0         0         0
         0         0         0         0         0         0         0         0
         0         0         0         0         0         0         0         0
         0         0         0         0         0         0         0         0
         0         0         0         0         0         0         0         0
         0         0         0         0         0         0         0         0
         0         0         0         0         0         0         0         0
         0         0         0         0         0         0         0         0
         0         0         0         0         0         0         0         0
         0         0         0         0         0         0         0         0
         0         0         0         0         0         0         0         0
         0         0         0         0         0         0         0         0
         0         0         0         0         0         0         0         0
         0         0         0         0         0         0         0         0
         0         0         0         0         0         0         0         0
         0         0         0         0         0         0         0         0
         0         0         0         0         0         0         0         0
         0         0         0         0         0         0         0         0
         0         0         0         0         0         0         0         0
         0         0         0         0         0         0         0         0
         0         0         0         0         0         0         0         0
         0         0         0         0         0         0         0         0
         0         0         0         0         0         0         0         0
         0         0         0         0         0         0         0         0
         0         0         0         0         0         0         0         0
         0         0         0         0         0         0         0         0
         0         0         0         0         0         0         0         0
         0         0         0         0         0         0         0         0
         0         0         0         0         0         0         0         0
         0         0         0         0         0         0         0         0
         0         0         0         0         0         0         0         0
         0         0         0         0         0         0         0         0
         0         0         0         0         0         0         0         0
         0         0         0         0         0         0         0         0
         0         0         0         0         0         0         0         0
         0         0         0         0         0         0         0         0
         0         0         0         0         0         0         0         0
         0         0         0         0         0         0         0         0
         0         0         0         0         0         0         0         0
         0         0         0         0         0         0         0         0
         0         0         0         0         0         0         0         0
         0         0         0         0         0         0         0         0
         0         0         0         0         0         0         0         0
         0         0         0         0         0         0         0         0
         0         0         0         0         0         0         0         0
         0         0         0         0         0         0         0         0
         0         0         0         0         0         0         0         0
         0         0         0         0         0         0         0         0
         0         0         0         0         0         0         0         0
         0         0         0         0         0         0         0         0
         0         0         0         0         0         0         0         0
         0         0         0         0         0         0         0         0
         0         0         0         0         0         0         0         0
         0         0         0         0         0         0         0         0
         0         0         0         0         0         0         0         0
         0         0         0         0         0         0         0         0
         0         0         0         0         0         0         0         0
         0         0         0         0         0         0         0         0
         0         0         0         0         0         0         0         0
         0         0         0         0         0         0         0         0
         0         0         0         0         0         0         0         0
         0         0         0         0         0         0         0         0
         0         0         0         0         0         0         0         0
         0         0         0         0         0         0         0         0
         0         0         0         0         0         0         0         0
         0         0         0         0         0         0         0         0
         0         0         0         0         0         0         0         0
         0         0         0         0         0         0         0         0
         0         0         0         0         0         0         0         0
         0         0         0         0         0         0         0         0
         0         0         0         0         0         0         0         0
         0         0         0         0         0         0         0         0
         0         0         0         0         0         0         0         0
         0         0         0         0         0         0         0         0
         0         0         0         0         0         0         0         0
         0         0         0         0         0         0         0         0
         0         0         0         0         0         0         0         0
         0         0         0         0         0         0         0         0
         0         0         0         0         0         0         0         0
         0         0         0         0         0         0         0         0
         0         0         0         0         0         0         0         0
         0         0         0         0         0         0         0         0
         0         0         0         0         0         0         0         0
         0         0         0         0         0         0         0         0
         0         0         0         0         0         0         0         0
         0         0         0         0         0         0         0         0
         0         0         0         0         0         0         0         0
         0         0         0         0         0         0         0         0
         0         0         0         0         0         0         0         0
         0         0         0         0         0         0         0         0
         0         0         0         0         0         0         0         0
         0         0         0         0         0         0         0         0
         0         0         0         0         0         0         0         0
         0         0         0         0         0         0         0         0
         0         0         0         0         0         0         0         0
         0         0         0         0         0         0         0         0
         0         0         0         0         0         0         0         0
         0         0         0         0         0         0         0         0
         0         0         0         0         0         0         0         0
         0         0         0         0         0         0         0         0
         0         0         0         0         0         0         0         0
         0         0         0         0         0         0         0         0
         0         0         0         0         0         0         0         0
         0         0         0         0         0         0         0         0
         0         0         0         0         0         0         0         0
         0         0         0         0         0         0         0         0
         0         0         0         0         0         0         0         0
         0         0         0         0         0         0         0         0
         0         0         0         0         0         0         0         0
         0         0         0         0         0         0         0         0
         0         0         0         0         0         0         0         0
         0         0         0         0         0         0         0         0
         0         0         0         0         0         0         0         0
         0         0         0         0         0         0         0         0
         0         0         0         0         0         0         0         0
         0         0         0         0         0         0         0         0
         0         0         0         0         0         0         0         0
         0         0         0         0         0         0         0         0
         0         0         0         0         0         0         0         0
         0         0         0         0         0         0         0         0
         0         0         0         0         0         0         0         0
         0         0         0         0         0         0         0         0
         0         0         0         0         0         0         0         0
         0         0         0         0         0         0         0         0
         0         0         0         0         0         0         0         0
         0         0         0         0         0         0         0         0
         0         0         0         0         0         0         0         0
         0         0         0         0         0         0         0         0
         0         0         0         0         0         0         0         0
         0         0         0         0         0         0         0         0
         0         0         0         0         0         0         0         0
         0         0         0         0         0         0         0         0
         0         0         0         0         0         0         0         0
         0         0         0         0         0         0         0         0
         0         0         0         0         0         0         0         0
         0         0         0         0         0         0         0         0
         0         0         0         0         0         0         0         0
         0         0         0         0         0         0         0         0
         0         0         0         0         0         0         0         0
         0         0         0         0         0         0         0         0
         0         0         0         0         0         0         0         0
         0         0         0         0         0         0         0         0
         0         0         0         0         0         0         0         0
         0         0         0         0         0         0         0         0
         0         0         0         0         0         0         0         0
         0         0         0         0         0         0         0         0
         0         0         0         0         0         0         0         0
         0         0         0         0         0         0         0         0
         0         0         0         0         0         0         0         0
         0         0         0         0         0         0         0         0
         0         0         0         0         0         0         0         0
         0         0         0         0         0         0         0         0
         0         0         0         0         0         0         0         0
         0         0         0         0         0         0         0         0
         0         0         0         0         0         0         0         0
         0         0         0         0         0         0         0         0
         0         0         0         0         0         0         0         0
         0         0         0         0         0         0         0         0
         0         0         0         0         0         0         0         0
         0         0         0         0         0         0         0         0
         0         0         0         0         0         0         0         0
         0         0         0         0         0         0         0         0
         0         0         0         0         0         0         0         0
         0         0         0         0         0         0         0         0
         0         0         0         0         0         0         0         0
         0         0         0         0         0         0         0         0
         0         0         0         0         0         0         0         0
         0         0         0         0         0         0         0         0
         0         0         0         0         0         0         0         0
         0         0         0         0         0         0         0         0
         0         0         0         0         0         0         0         0
         0         0         0         0         0         0         0         0
         0         0         0         0         0         0         0         0
         0         0         0         0         0         0         0         0
         0         0         0         0         0         0         0         0
         0         0         0         0         0         0         0         0
         0         0         0         0         0         0         0         0
         0         0         0         0         0         0         0         0
         0         0         0         0         0         0         0         0
         0         0         0         0         0         0         0         0
         0         0         0         0         0         0         0         0
         0         0         0         0         0         0         0         0
         0         0         0         0         0         0         0         0
         0         0         0         0         0         0         0         0
         0         0         0         0         0         0         0         0
         0         0         0         0         0         0         0         0
         0         0         0         0         0         0         0         0
         0         0         0         0         0         0         0         0
         0         0         0         0         0         0         0         0
         0         0         0         0         0         0         0         0
         0         0         0         0         0         0         0         0
         0         0         0         0         0         0         0         0
         0         0         0         0         0         0         0         0
         0         0         0         0         0         0         0         0
         0         0         0         0         0         0         0         0
         0         0         0         0         0         0         0         0
         0         0         0         0         0         0         0         0
         0         0         0         0         0         0         0         0
         0         0         0         0         0         0         0         0
         0         0         0         0         0         0         0         0
         0         0         0         0         0         0         0         0
         0         0         0         0         0         0         0         0
         0         0         0         0         0         0         0         0
         0         0         0         0         0         0         0         0
         0         0         0         0         0         0         0         0
         0         0         0         0         0         0         0         0
         0         0         0         0         0         0         0         0
         0         0         0         0         0         0         0         0
         0         0         0         0         0         0         0         0
         0         0         0         0         0         0         0         0
         0         0         0         0         0         0         0         0
         0         0         0         0         0         0         0         0
         0         0         0         0         0         0         0         0
         0         0         0         0         0         0         0         0
         0         0         0         0         0         0         0         0
         0         0         0         0         0         0         0         0
         0         0         0         0         0         0         0         0
         0         0         0         0         0         0         0         0
         0         0         0         0         0         0         0         0
         0         0         0         0         0         0         0         0
         0         0         0         0         0         0         0         0
         0         0         0         0         0         0         0         0
         0         0         0         0         0         0         0         0
         0         0         0         0         0         0         0         0
         0         0         0         0         0         0         0         0
         0         0         0         0         0         0         0         0
         0         0         0         0         0         0         0         0
         0         0         0         0         0         0         0         0
         0         0         0         0         0         0         0         0
         0         0         0         0         0         0         0         0
         0         0         0         0         0         0         0         0
         0         0         0         0         0         0         0         0
         0         0         0         0         0         0         0         0
         0         0         0         0         0         0         0         0
         0         0         0         0         0         0         0         0
         0         0         0         0         0         0         0         0
         0         0         0         0         0         0         0         0
         0         0         0         0         0         0         0         0
         0         0         0         0         0         0         0         0
         0         0         0         0         0         0         0         0
         0         0         0         0         0         0         0         0
         0         0         0         0         0         0         0         0
         0         0         0         0         0         0         0         0
         0         0         0         0         0         0         0         0
         0         0         0         0         0         0         0         0
         0         0         0         0         0         0         0         0
         0         0         0         0         0         0         0         0
         0         0         0         0         0         0         0         0
         0         0         0         0         0         0         0         0
         0         0         0         0         0         0         0         0
         0         0         0         0         0         0         0         0
         0         0         0         0         0         0         0         0
         0         0         0         0         0         0         0         0
         0         0         0         0         0         0         0         0
         0         0         0         0         0         0         0         0
         0         0         0         0         0         0         0         0
         0         0         0         0         0         0         0         0
         0         0         0         0         0         0         0         0
         0         0         0         0         0         0         0         0
         0         0         0         0         0         0         0         0
         0         0         0         0         0         0         0         0
         0         0         0         0         0         0         0         0
         0         0         0         0         0         0         0         0
         0         0         0         0         0         0         0         0
         0         0         0         0         0         0         0         0
         0         0         0         0         0         0         0         0
         0         0         0         0         0         0         0         0
         0         0         0         0         0         0         0         0
         0         0         0         0         0         0         0         0
         0         0         0         0         0         0         0         0
         0         0         0         0         0         0         0         0
         0         0         0         0         0         0         0         0
         0         0         0         0         0         0         0         0
         0         0         0         0         0         0         0         0
         0         0         0         0         0         0         0         0
         0         0         0         0         0         0         0         0
         0         0         0         0         0         0         0         0
         0         0         0         0         0         0         0         0
         0         0         0         0         0         0         0         0
         0         0         0         0         0         0         0         0
         0         0         0         0         0         0         0         0
         0         0         0         0         0         0         0         0
         0         0         0         0         0         0         0         0
         0         0         0         0         0         0         0         0
         0         0         0         0         0         0         0         0
         0         0         0         0         0         0         0         0
         0         0         0         0         0         0         0         0
         0         0         0         0         0         0         0         0
         0         0         0         0         0         0         0         0
         0         0         0         0         0         0         0         0
         0         0         0         0         0         0         0         0
         0         0         0         0         0         0         0         0
         0         0         0         0         0         0         0         0
         0         0         0         0         0         0         0         0
         0         0         0         0         0         0         0         0
         0         0         0         0         0         0         0         0
         0         0         0         0         0         0         0         0
         0         0         0         0         0         0         0         0
         0         0         0         0         0         0         0         0
         0         0         0         0         0         0         0         0
         0         0         0         0         0         0         0         0
         0         0         0         0         0         0         0         0
         0         0         0         0         0         0         0         0
         0         0         0         0         0         0         0         0
         0         0         0         0         0         0         0         0
         0         0         0         0         0         0         0         0
         0         0         0         0         0         0         0         0
         0         0         0         0         0         0         0         0
         0         0         0         0         0         0         0         0
         0         0         0         0         0         0         0         0
         0         0         0         0         0         0         0         0
         0         0         0         0         0         0         0         0
         0         0         0         0         0         0         0         0
         0         0         0         0         0         0         0         0
         0         0         0         0         0         0         0         0
         0         0         0         0         0         0         0         0
         0         0         0         0         0         0         0         0
         0         0         0         0         0         0         0         0
         0         0         0         0         0         0         0         0
         0         0         0         0         0         0         0         0
         0         0         0         0         0         0         0         0
         0         0         0         0         0         0         0         0
         0         0         0         0         0         0         0         0
         0         0         0         0         0         0         0         0
         0         0         0         0         0         0         0         0
         0         0         0         0         0         0         0         0
         0         0         0         0         0         0         0         0
         0         0         0         0         0         0         0         0
         0         0         0         0         0         0         0         0
         0         0         0         0         0         0         0         0
         0         0         0         0         0         0         0         0
         0         0         0         0         0         0         0         0
         0         0         0         0         0         0         0         0
         0         0         0         0         0         0         0         0
         0         0         0         0         0         0         0         0
         0         0         0         0         0         0         0         0
         0         0         0         0         0         0         0         0
         0         0         0         0         0         0         0         0
         0         0         0         0         0         0         0         0
         0         0         0         0         0         0         0         0
         0         0         0         0         0         0         0         0
         0         0         0         0         0         0         0         0
         0         0         0         0         0         0         0         0
         0         0         0         0         0         0         0         0
         0         0         0         0         0         0         0         0
         0         0         0         0         0         0         0         0

      2176         0 !NGRP NST2
         0         2         0        16         2         0        27         1         0
        35         1         0        44         1         0        47         1         0
        50         1         0        53         1         0        56         1         0
        59         1         0        62         1         0        64         1         0
        66         1         0        69         1         0        72         1         0
        75         1         0        78         1         0        81         1         0
        84         1         0        87         1         0        91         1         0
        94         1         0        97         1         0       100         1         0
       103         1         0       106         1         0       109         1         0
       112         1         0       115         1         0       118         1         0
       121         1         0       124         1         0       127         1         0
       130         1         0       134         2         0       150         2         0
       161         1         0       169         1         0       178         1         0
       181         1         0       184         1         0       187         1         0
       190         1         0       193         1         0       196         1         0
       198         1         0       200         1         0       203         1         0
       206         1         0       209         1         0       212         1         0
       215         1         0       218         1         0       221         1         0
       225         1         0       228         1         0       231         1         0
       234         1         0       237         1         0       240         1         0
       243         1         0       246         1         0       249         1         0
       252         1         0       255         1         0       258         1         0
       261         1         0       264         1         0       268         2         0
       284         2         0       295         1         0       303         1         0
       312         1         0       315         1         0       318         1         0
       321         1         0       324         1         0       327         1         0
       330         1         0       332         1         0       334         1         0
       337         1         0       340         1         0       343         1         0
       346         1         0       349         1         0       352         1         0
       355         1         0       359         1         0       362         1         0
       365         1         0       368         1         0       371         1         0
       374         1         0       377         1         0       380         1         0
       383         1         0       386         1         0       389         1         0
       392         1         0       395         1         0       398         1         0
       402         2         0       418         2         0       429         1         0
       437         1         0       446         1         0       449         1         0
       452         1         0       455         1         0       458         1         0
       461         1         0       464         1         0       466         1         0
       468         1         0       471         1         0       474         1         0
       477         1         0       480         1         0       483         1         0
       486         1         0       489         1         0       493         1         0
       496         1         0       499         1         0       502         1         0
       505         1         0       508         1         0       511         1         0
       514         1         0       517         1         0       520         1         0
       523         1         0       526         1         0       529         1         0
       532         1         0       536         2         0       552         2         0
       563         1         0       571         1         0       580         1         0
       583         1         0       586         1         0       589         1         0
       592         1         0       595         1         0       598         1         0
       600         1         0       602         1         0       605         1         0
       608         1         0       611         1         0       614         1         0
       617         1         0       620         1         0       623         1         0
       627         1         0       630         1         0       633         1         0
       636         1         0       639         1         0       642         1         0
       645         1         0       648         1         0       651         1         0
       654         1         0       657         1         0       660         1         0
       663         1         0       666         1         0       670         2         0
       686         2         0       697         1         0       705         1         0
       714         1         0       717         1         0       720         1         0
       723         1         0       726         1         0       729         1         0
       732         1         0       734         1         0       736         1         0
       739         1         0       742         1         0       745         1         0
       748         1         0       751         1         0       754         1         0
       757         1         0       761         1         0       764         1         0
       767         1         0       770         1         0       773         1         0
       776         1         0       779         1         0       782         1         0
       785         1         0       788         1         0       791         1         0
       794         1         0       797         1         0       800         1         0
       804         2         0       820         2         0       831         1         0
       839         1         0       848         1         0       851         1         0
       854         1         0       857         1         0       860         1         0
       863         1         0       866         1         0       868         1         0
       870         1         0       873         1         0       876         1         0
       879         1         0       882         1         0       885         1         0
       888         1         0       891         1         0       895         1         0
       898         1         0       901         1         0       904         1         0
       907         1         0       910         1         0       913         1         0
       916         1         0       919         1         0       922         1         0
       925         1         0       928         1         0       931         1         0
       934         1         0       938         2         0       954         2         0
       965         1         0       973         1         0       982         1         0
       985         1         0       988         1         0       991         1         0
       994         1         0       997         1         0      1000         1         0
      1002         1         0      1004         1         0      1007         1         0
      1010         1         0      1013         1         0      1016         1         0
      1019         1         0      1022         1         0      1025         1         0
      1029         1         0      1032         1         0      1035         1         0
      1038         1         0      1041         1         0      1044         1         0
      1047         1         0      1050         1         0      1053         1         0
      1056         1         0      1059         1         0      1062         1         0
      1065         1         0      1068         1         0      1072         2         0
      1088         2         0      1099         1         0      1107         1         0
      1116         1         0      1119         1         0      1122         1         0
      1125         1         0      1128         1         0      1131         1         0
      1134         1         0      1136         1         0      1138         1         0
      1141         1         0      1144         1         0      1147         1         0
      1150         1         0      1153         1         0      1156         1         0
      1159         1         0      1163         1         0      1166         1         0
      1169         1         0      1172         1         0      1175         1         0
      1178         1         0      1181         1         0      1184         1         0
      1187         1         0      1190         1         0      1193         1         0
      1196         1         0      1199         1         0      1202         1         0
      1206         2         0      1222         2         0      1233         1         0
      1241         1         0      1250         1         0      1253         1         0
      1256         1         0      1259         1         0      1262         1         0
      1265         1         0      1268         1         0      1270         1         0
      1272         1         0      1275         1         0      1278         1         0
      1281         1         0      1284         1         0      1287         1         0
      1290         1         0      1293         1         0      1297         1         0
      1300         1         0      1303         1         0      1306         1         0
      1309         1         0      1312         1         0      1315         1         0
      1318         1         0      1321         1         0      1324         1         0
      1327         1         0      1330         1         0      1333         1         0
      1336         1         0      1340         2         0      1356         2         0
      1367         1         0      1375         1         0      1384         1         0
      1387         1         0      1390         1         0      1393         1         0
      1396         1         0      1399         1         0      1402         1         0
      1404         1         0      1406         1         0      1409         1         0
      1412         1         0      1415         1         0      1418         1         0
      1421         1         0      1424         1         0      1427         1         0
      1431         1         0      1434         1         0      1437         1         0
      1440         1         0      1443         1         0      1446         1         0
      1449         1         0      1452         1         0      1455         1         0
      1458         1         0      1461         1         0      1464         1         0
      1467         1         0      1470         1         0      1474         2         0
      1490         2         0      1501         1         0      1509         1         0
      1518         1         0      1521         1         0      1524         1         0
      1527         1         0      1530         1         0      1533         1         0
      1536         1         0      1538         1         0      1540         1         0
      1543         1         0      1546         1         0      1549         1         0
      1552         1         0      1555         1         0      1558         1         0
      1561         1         0      1565         1         0      1568         1         0
      1571         1         0      1574         1         0      1577         1         0
      1580         1         0      1583         1         0      1586         1         0
      1589         1         0      1592         1         0      1595         1         0
      1598         1         0      1601         1         0      1604         1         0
      1608         2         0      1624         2         0      1635         1         0
      1643         1         0      1652         1         0      1655         1         0
      1658         1         0      1661         1         0      1664         1         0
      1667         1         0      1670         1         0      1672         1         0
      1674         1         0      1677         1         0      1680         1         0
      1683         1         0      1686         1         0      1689         1         0
      1692         1         0      1695         1         0      1699         1         0
      1702         1         0      1705         1         0      1708         1         0
      1711         1         0      1714         1         0      1717         1         0
      1720         1         0      1723         1         0      1726         1         0
      1729         1         0      1732         1         0      1735         1         0
      1738         1         0      1742         2         0      1758         2         0
      1769         1         0      1777         1         0      1786         1         0
      1789         1         0      1792         1         0      1795         1         0
      1798         1         0      1801         1         0      1804         1         0
      1806         1         0      1808         1         0      1811         1         0
      1814         1         0      1817         1         0      1820         1         0
      1823         1         0      1826         1         0      1829         1         0
      1833         1         0      1836         1         0      1839         1         0
      1842         1         0      1845         1         0      1848         1         0
      1851         1         0      1854         1         0      1857         1         0
      1860         1         0      1863         1         0      1866         1         0
      1869         1         0      1872         1         0      1876         2         0
      1892         2         0      1903         1         0      1911         1         0
      1920         1         0      1923         1         0      1926         1         0
      1929         1         0      1932         1         0      1935         1         0
      1938         1         0      1940         1         0      1942         1         0
      1945         1         0      1948         1         0      1951         1         0
      1954         1         0      1957         1         0      1960         1         0
      1963         1         0      1967         1         0      1970         1         0
      1973         1         0      1976         1         0      1979         1         0
      1982         1         0      1985         1         0      1988         1         0
      1991         1         0      1994         1         0      1997         1         0
      2000         1         0      2003         1         0      2006         1         0
      2010         2         0      2026         2         0      2037         1         0
      2045         1         0      2054         1         0      2057         1         0
      2060         1         0      2063         1         0      2066         1         0
      2069         1         0      2072         1         0      2074         1         0
      2076         1         0      2079         1         0      2082         1         0
      2085         1         0      2088         1         0      2091         1         0
      2094         1         0      2097         1         0      2101         1         0
      2104         1         0      2107         1         0      2110         1         0
      2113         1         0      2116         1         0      2119         1         0
      2122         1         0      2125         1         0      2128         1         0
      2131         1         0      2134         1         0      2137         1         0
      2140         1         0      2144         2         0      2160         2         0
      2171         1         0      2179         1         0      2188         1         0
      2191         1         0      2194         1         0      2197         1         0
      2200         1         0      2203         1         0      2206         1         0
      2208         1         0      2210         1         0      2213         1         0
      2216         1         0      2219         1         0      2222         1         0
      2225         1         0      2228         1         0      2231         1         0
      2235         1         0      2238         1         0      2241         1         0
      2244         1         0      2247         1         0      2250         1         0
      2253         1         0      2256         1         0      2259         1         0
      2262         1         0      2265         1         0      2268         1         0
      2271         1         0      2274         1         0      2278         2         0
      2294         2         0      2305         1         0      2313         1         0
      2322         1         0      2325         1         0      2328         1         0
      2331         1         0      2334         1         0      2337         1         0
      2340         1         0      2342         1         0      2344         1         0
      2347         1         0      2350         1         0      2353         1         0
      2356         1         0      2359         1         0      2362         1         0
      2365         1         0      2369         1         0      2372         1         0
      2375         1         0      2378         1         0      2381         1         0
      2384         1         0      2387         1         0      2390         1         0
      2393         1         0      2396         1         0      2399         1         0
      2402         1         0      2405         1         0      2408         1         0
      2412         2         0      2428         2         0      2439         1         0
      2447         1         0      2456         1         0      2459         1         0
      2462         1         0      2465         1         0      2468         1         0
      2471         1         0      2474         1         0      2476         1         0
      2478         1         0      2481         1         0      2484         1         0
      2487         1         0      2490         1         0      2493         1         0
      2496         1         0      2499         1         0      2503         1         0
      2506         1         0      2509         1         0      2512         1         0
      2515         1         0      2518         1         0      2521         1         0
      2524         1         0      2527         1         0      2530         1         0
      2533         1         0      2536         1         0      2539         1         0
      2542         1         0      2546         2         0      2562         2         0
      2573         1         0      2581         1         0      2590         1         0
      2593         1         0      2596         1         0      2599         1         0
      2602         1         0      2605         1         0      2608         1         0
      2610         1         0      2612         1         0      2615         1         0
      2618         1         0      2621         1         0      2624         1         0
      2627         1         0      2630         1         0      2633         1         0
      2637         1         0      2640         1         0      2643         1         0
      2646         1         0      2649         1         0      2652         1         0
      2655         1         0      2658         1         0      2661         1         0
      2664         1         0      2667         1         0      2670         1         0
      2673         1         0      2676         1         0      2680         2         0
      2696         2         0      2707         1         0      2715         1         0
      2724         1         0      2727         1         0      2730         1         0
      2733         1         0      2736         1         0      2739         1         0
      2742         1         0      2744         1         0      2746         1         0
      2749         1         0      2752         1         0      2755         1         0
      2758         1         0      2761         1         0      2764         1         0
      2767         1         0      2771         1         0      2774         1         0
      2777         1         0      2780         1         0      2783         1         0
      2786         1         0      2789         1         0      2792         1         0
      2795         1         0      2798         1         0      2801         1         0
      2804         1         0      2807         1         0      2810         1         0
      2814         2         0      2830         2         0      2841         1         0
      2849         1         0      2858         1         0      2861         1         0
      2864         1         0      2867         1         0      2870         1         0
      2873         1         0      2876         1         0      2878         1         0
      2880         1         0      2883         1         0      2886         1         0
      2889         1         0      2892         1         0      2895         1         0
      2898         1         0      2901         1         0      2905         1         0
      2908         1         0      2911         1         0      2914         1         0
      2917         1         0      2920         1         0      2923         1         0
      2926         1         0      2929         1         0      2932         1         0
      2935         1         0      2938         1         0      2941         1         0
      2944         1         0      2948         2         0      2964         2         0
      2975         1         0      2983         1         0      2992         1         0
      2995         1         0      2998         1         0      3001         1         0
      3004         1         0      3007         1         0      3010         1         0
      3012         1         0      3014         1         0      3017         1         0
      3020         1         0      3023         1         0      3026         1         0
      3029         1         0      3032         1         0      3035         1         0
      3039         1         0      3042         1         0      3045         1         0
      3048         1         0      3051         1         0      3054         1         0
      3057         1         0      3060         1         0      3063         1         0
      3066         1         0      3069         1         0      3072         1         0
      3075         1         0      3078         1         0      3082         2         0
      3098         2         0      3109         1         0      3117         1         0
      3126         1         0      3129         1         0      3132         1         0
      3135         1         0      3138         1         0      3141         1         0
      3144         1         0      3146         1         0      3148         1         0
      3151         1         0      3154         1         0      3157         1         0
      3160         1         0      3163         1         0      3166         1         0
      3169         1         0      3173         1         0      3176         1         0
      3179         1         0      3182         1         0      3185         1         0
      3188         1         0      3191         1         0      3194         1         0
      3197         1         0      3200         1         0      3203         1         0
      3206         1         0      3209         1         0      3212         1         0
      3216         2         0      3232         2         0      3243         1         0
      3251         1         0      3260         1         0      3263         1         0
      3266         1         0      3269         1         0      3272         1         0
      3275         1         0      3278         1         0      3280         1         0
      3282         1         0      3285         1         0      3288         1         0
      3291         1         0      3294         1         0      3297         1         0
      3300         1         0      3303         1         0      3307         1         0
      3310         1         0      3313         1         0      3316         1         0
      3319         1         0      3322         1         0      3325         1         0
      3328         1         0      3331         1         0      3334         1         0
      3337         1         0      3340         1         0      3343         1         0
      3346         1         0      3350         2         0      3366         2         0
      3377         1         0      3385         1         0      3394         1         0
      3397         1         0      3400         1         0      3403         1         0
      3406         1         0      3409         1         0      3412         1         0
      3414         1         0      3416         1         0      3419         1         0
      3422         1         0      3425         1         0      3428         1         0
      3431         1         0      3434         1         0      3437         1         0
      3441         1         0      3444         1         0      3447         1         0
      3450         1         0      3453         1         0      3456         1         0
      3459         1         0      3462         1         0      3465         1         0
      3468         1         0      3471         1         0      3474         1         0
      3477         1         0      3480         1         0      3484         2         0
      3500         2         0      3511         1         0      3519         1         0
      3528         1         0      3531         1         0      3534         1         0
      3537         1         0      3540         1         0      3543         1         0
      3546         1         0      3548         1         0      3550         1         0
      3553         1         0      3556         1         0      3559         1         0
      3562         1         0      3565         1         0      3568         1         0
      3571         1         0      3575         1         0      3578         1         0
      3581         1         0      3584         1         0      3587         1         0
      3590         1         0      3593         1         0      3596         1         0
      3599         1         0      3602         1         0      3605         1         0
      3608         1         0      3611         1         0      3614         1         0
      3618         2         0      3634         2         0      3645         1         0
      3653         1         0      3662         1         0      3665         1         0
      3668         1         0      3671         1         0      3674         1         0
      3677         1         0      3680         1         0      3682         1         0
      3684         1         0      3687         1         0      3690         1         0
      3693         1         0      3696         1         0      3699         1         0
      3702         1         0      3705         1         0      3709         1         0
      3712         1         0      3715         1         0      3718         1         0
      3721         1         0      3724         1         0      3727         1         0
      3730         1         0      3733         1         0      3736         1         0
      3739         1         0      3742         1         0      3745         1         0
      3748         1         0      3752         2         0      3768         2         0
      3779         1         0      3787         1         0      3796         1         0
      3799         1         0      3802         1         0      3805         1         0
      3808         1         0      3811         1         0      3814         1         0
      3816         1         0      3818         1         0      3821         1         0
      3824         1         0      3827         1         0      3830         1         0
      3833         1         0      3836         1         0      3839         1         0
      3843         1         0      3846         1         0      3849         1         0
      3852         1         0      3855         1         0      3858         1         0
      3861         1         0      3864         1         0      3867         1         0
      3870         1         0      3873         1         0      3876         1         0
      3879         1         0      3882         1         0      3886         2         0
      3902         2         0      3913         1         0      3921         1         0
      3930         1         0      3933         1         0      3936         1         0
      3939         1         0      3942         1         0      3945         1         0
      3948         1         0      3950         1         0      3952         1         0
      3955         1         0      3958         1         0      3961         1         0
      3964         1         0      3967         1         0      3970         1         0
      3973         1         0      3977         1         0      3980         1         0
      3983         1         0      3986         1         0      3989         1         0
      3992         1         0      3995         1         0      3998         1         0
      4001         1         0      4004         1         0      4007         1         0
      4010         1         0      4013         1         0      4016         1         0
      4020         2         0      4036         2         0      4047         1         0
      4055         1         0      4064         1         0      4067         1         0
      4070         1         0      4073         1         0      4076         1         0
      4079         1         0      4082         1         0      4084         1         0
      4086         1         0      4089         1         0      4092         1         0
      4095         1         0      4098         1         0      4101         1         0
      4104         1         0      4107         1         0      4111         1         0
      4114         1         0      4117         1         0      4120         1         0
      4123         1         0      4126         1         0      4129         1         0
      4132         1         0      4135         1         0      4138         1         0
      4141         1         0      4144         1         0      4147         1         0
      4150         1         0      4154         2         0      4170         2         0
      4181         1         0      4189         1         0      4198         1         0
      4201         1         0      4204         1         0      4207         1         0
      4210         1         0      4213         1         0      4216         1         0
      4218         1         0      4220         1         0      4223         1         0
      4226         1         0      4229         1         0      4232         1         0
      4235         1         0      4238         1         0      4241         1         0
      4245         1         0      4248         1         0      4251         1         0
      4254         1         0      4257         1         0      4260         1         0
      4263         1         0      4266         1         0      4269         1         0
      4272         1         0      4275         1         0      4278         1         0
      4281         1         0      4284         1         0      4288         2         0
      4304         2         0      4315         1         0      4323         1         0
      4332         1         0      4335         1         0      4338         1         0
      4341         1         0      4344         1         0      4347         1         0
      4350         1         0      4352         1         0      4354         1         0
      4357         1         0      4360         1         0      4363         1         0
      4366         1         0      4369         1         0      4372         1         0
      4375         1         0      4379         1         0      4382         1         0
      4385         1         0      4388         1         0      4391         1         0
      4394         1         0      4397         1         0      4400         1         0
      4403         1         0      4406         1         0      4409         1         0
      4412         1         0      4415         1         0      4418         1         0
      4422         2         0      4438         2         0      4449         1         0
      4457         1         0      4466         1         0      4469         1         0
      4472         1         0      4475         1         0      4478         1         0
      4481         1         0      4484         1         0      4486         1         0
      4488         1         0      4491         1         0      4494         1         0
      4497         1         0      4500         1         0      4503         1         0
      4506         1         0      4509         1         0      4513         1         0
      4516         1         0      4519         1         0      4522         1         0
      4525         1         0      4528         1         0      4531         1         0
      4534         1         0      4537         1         0      4540         1         0
      4543         1         0      4546         1         0      4549         1         0
      4552         1         0      4556         2         0      4572         2         0
      4583         1         0      4591         1         0      4600         1         0
      4603         1         0      4606         1         0      4609         1         0
      4612         1         0      4615         1         0      4618         1         0
      4620         1         0      4622         1         0      4625         1         0
      4628         1         0      4631         1         0      4634         1         0
      4637         1         0      4640         1         0      4643         1         0
      4647         1         0      4650         1         0      4653         1         0
      4656         1         0      4659         1         0      4662         1         0
      4665         1         0      4668         1         0      4671         1         0
      4674         1         0      4677         1         0      4680         1         0
      4683         1         0      4686         1         0      4690         2         0
      4706         2         0      4717         1         0      4725         1         0
      4734         1         0      4737         1         0      4740         1         0
      4743         1         0      4746         1         0      4749         1         0
      4752         1         0      4754         1         0      4756         1         0
      4759         1         0      4762         1         0      4765         1         0
      4768         1         0      4771         1         0      4774         1         0
      4777         1         0      4781         1         0      4784         1         0
      4787         1         0      4790         1         0      4793         1         0
      4796         1         0      4799         1         0      4802         1         0
      4805         1         0      4808         1         0      4811         1         0
      4814         1         0      4817         1         0      4820         1         0
      4824         2         0      4840         2         0      4851         1         0
      4859         1         0      4868         1         0      4871         1         0
      4874         1         0      4877         1         0      4880         1         0
      4883         1         0      4886         1         0      4888         1         0
      4890         1         0      4893         1         0      4896         1         0
      4899         1         0      4902         1         0      4905         1         0
      4908         1         0      4911         1         0      4915         1         0
      4918         1         0      4921         1         0      4924         1         0
      4927         1         0      4930         1         0      4933         1         0
      4936         1         0      4939         1         0      4942         1         0
      4945         1         0      4948         1         0      4951         1         0
      4954         1         0      4958         2         0      4974         2         0
      4985         1         0      4993         1         0      5002         1         0
      5005         1         0      5008         1         0      5011         1         0
      5014         1         0      5017         1         0      5020         1         0
      5022         1         0      5024         1         0      5027         1         0
      5030         1         0      5033         1         0      5036         1         0
      5039         1         0      5042         1         0      5045         1         0
      5049         1         0      5052         1         0      5055         1         0
      5058         1         0      5061         1         0      5064         1         0
      5067         1         0      5070         1         0      5073         1         0
      5076         1         0      5079         1         0      5082         1         0
      5085         1         0      5088         1         0      5092         2         0
      5108         2         0      5119         1         0      5127         1         0
      5136         1         0      5139         1         0      5142         1         0
      5145         1         0      5148         1         0      5151         1         0
      5154         1         0      5156         1         0      5158         1         0
      5161         1         0      5164         1         0      5167         1         0
      5170         1         0      5173         1         0      5176         1         0
      5179         1         0      5183         1         0      5186         1         0
      5189         1         0      5192         1         0      5195         1         0
      5198         1         0      5201         1         0      5204         1         0
      5207         1         0      5210         1         0      5213         1         0
      5216         1         0      5219         1         0      5222         1         0
      5226         2         0      5242         2         0      5253         1         0
      5261         1         0      5270         1         0      5273         1         0
      5276         1         0      5279         1         0      5282         1         0
      5285         1         0      5288         1         0      5290         1         0
      5292         1         0      5295         1         0      5298         1         0
      5301         1         0      5304         1         0      5307         1         0
      5310         1         0      5313         1         0      5317         1         0
      5320         1         0      5323         1         0      5326         1         0
      5329         1         0      5332         1         0      5335         1         0
      5338         1         0      5341         1         0      5344         1         0
      5347         1         0      5350         1         0      5353         1         0
      5356         1         0      5360         2         0      5376         2         0
      5387         1         0      5395         1         0      5404         1         0
      5407         1         0      5410         1         0      5413         1         0
      5416         1         0      5419         1         0      5422         1         0
      5424         1         0      5426         1         0      5429         1         0
      5432         1         0      5435         1         0      5438         1         0
      5441         1         0      5444         1         0      5447         1         0
      5451         1         0      5454         1         0      5457         1         0
      5460         1         0      5463         1         0      5466         1         0
      5469         1         0      5472         1         0      5475         1         0
      5478         1         0      5481         1         0      5484         1         0
      5487         1         0      5490         1         0      5494         2         0
      5510         2         0      5521         1         0      5529         1         0
      5538         1         0      5541         1         0      5544         1         0
      5547         1         0      5550         1         0      5553         1         0
      5556         1         0      5558         1         0      5560         1         0
      5563         1         0      5566         1         0      5569         1         0
      5572         1         0      5575         1         0      5578         1         0
      5581         1         0      5585         1         0      5588         1         0
      5591         1         0      5594         1         0      5597         1         0
      5600         1         0      5603         1         0      5606         1         0
      5609         1         0      5612         1         0      5615         1         0
      5618         1         0      5621         1         0      5624         1         0
      5628         2         0      5644         2         0      5655         1         0
      5663         1         0      5672         1         0      5675         1         0
      5678         1         0      5681         1         0      5684         1         0
      5687         1         0      5690         1         0      5692         1         0
      5694         1         0      5697         1         0      5700         1         0
      5703         1         0      5706         1         0      5709         1         0
      5712         1         0      5715         1         0      5719         1         0
      5722         1         0      5725         1         0      5728         1         0
      5731         1         0      5734         1         0      5737         1         0
      5740         1         0      5743         1         0      5746         1         0
      5749         1         0      5752         1         0      5755         1         0
      5758         1         0      5762         2         0      5778         2         0
      5789         1         0      5797         1         0      5806         1         0
      5809         1         0      5812         1         0      5815         1         0
      5818         1         0      5821         1         0      5824         1         0
      5826         1         0      5828         1         0      5831         1         0
      5834         1         0      5837         1         0      5840         1         0
      5843         1         0      5846         1         0      5849         1         0
      5853         1         0      5856         1         0      5859         1         0
      5862         1         0      5865         1         0      5868         1         0
      5871         1         0      5874         1         0      5877         1         0
      5880         1         0      5883         1         0      5886         1         0
      5889         1         0      5892         1         0      5896         2         0
      5912         2         0      5923         1         0      5931         1         0
      5940         1         0      5943         1         0      5946         1         0
      5949         1         0      5952         1         0      5955         1         0
      5958         1         0      5960         1         0      5962         1         0
      5965         1         0      5968         1         0      5971         1         0
      5974         1         0      5977         1         0      5980         1         0
      5983         1         0      5987         1         0      5990         1         0
      5993         1         0      5996         1         0      5999         1         0
      6002         1         0      6005         1         0      6008         1         0
      6011         1         0      6014         1         0      6017         1         0
      6020         1         0      6023         1         0      6026         1         0
      6030         2         0      6046         2         0      6057         1         0
      6065         1         0      6074         1         0      6077         1         0
      6080         1         0      6083         1         0      6086         1         0
      6089         1         0      6092         1         0      6094         1         0
      6096         1         0      6099         1         0      6102         1         0
      6105         1         0      6108         1         0      6111         1         0
      6114         1         0      6117         1         0      6121         1         0
      6124         1         0      6127         1         0      6130         1         0
      6133         1         0      6136         1         0      6139         1         0
      6142         1         0      6145         1         0      6148         1         0
      6151         1         0      6154         1         0      6157         1         0
      6160         1         0      6164         2         0      6180         2         0
      6191         1         0      6199         1         0      6208         1         0
      6211         1         0      6214         1         0      6217         1         0
      6220         1         0      6223         1         0      6226         1         0
      6228         1         0      6230         1         0      6233         1         0
      6236         1         0      6239         1         0      6242         1         0
      6245         1         0      6248         1         0      6251         1         0
      6255         1         0      6258         1         0      6261         1         0
      6264         1         0      6267         1         0      6270         1         0
      6273         1         0      6276         1         0      6279         1         0
      6282         1         0      6285         1         0      6288         1         0
      6291         1         0      6294         1         0      6298         2         0
      6314         2         0      6325         1         0      6333         1         0
      6342         1         0      6345         1         0      6348         1         0
      6351         1         0      6354         1         0      6357         1         0
      6360         1         0      6362         1         0      6364         1         0
      6367         1         0      6370         1         0      6373         1         0
      6376         1         0      6379         1         0      6382         1         0
      6385         1         0      6389         1         0      6392         1         0
      6395         1         0      6398         1         0      6401         1         0
      6404         1         0      6407         1         0      6410         1         0
      6413         1         0      6416         1         0      6419         1         0
      6422         1         0      6425         1         0      6428         1         0
      6432         2         0      6448         2         0      6459         1         0
      6467         1         0      6476         1         0      6479         1         0
      6482         1         0      6485         1         0      6488         1         0
      6491         1         0      6494         1         0      6496         1         0
      6498         1         0      6501         1         0      6504         1         0
      6507         1         0      6510         1         0      6513         1         0
      6516         1         0      6519         1         0      6523         1         0
      6526         1         0      6529         1         0      6532         1         0
      6535         1         0      6538         1         0      6541         1         0
      6544         1         0      6547         1         0      6550         1         0
      6553         1         0      6556         1         0      6559         1         0
      6562         1         0      6566         2         0      6582         2         0
      6593         1         0      6601         1         0      6610         1         0
      6613         1         0      6616         1         0      6619         1         0
      6622         1         0      6625         1         0      6628         1         0
      6630         1         0      6632         1         0      6635         1         0
      6638         1         0      6641         1         0      6644         1         0
      6647         1         0      6650         1         0      6653         1         0
      6657         1         0      6660         1         0      6663         1         0
      6666         1         0      6669         1         0      6672         1         0
      6675         1         0      6678         1         0      6681         1         0
      6684         1         0      6687         1         0      6690         1         0
      6693         1         0      6696         1         0      6700         2         0
      6716         2         0      6727         1         0      6735         1         0
      6744         1         0      6747         1         0      6750         1         0
      6753         1         0      6756         1         0      6759         1         0
      6762         1         0      6764         1         0      6766         1         0
      6769         1         0      6772         1         0      6775         1         0
      6778         1         0      6781         1         0      6784         1         0
      6787         1         0      6791         1         0      6794         1         0
      6797         1         0      6800         1         0      6803         1         0
      6806         1         0      6809         1         0      6812         1         0
      6815         1         0      6818         1         0      6821         1         0
      6824         1         0      6827         1         0      6830         1         0
      6834         2         0      6850         2         0      6861         1         0
      6869         1         0      6878         1         0      6881         1         0
      6884         1         0      6887         1         0      6890         1         0
      6893         1         0      6896         1         0      6898         1         0
      6900         1         0      6903         1         0      6906         1         0
      6909         1         0      6912         1         0      6915         1         0
      6918         1         0      6921         1         0      6925         1         0
      6928         1         0      6931         1         0      6934         1         0
      6937         1         0      6940         1         0      6943         1         0
      6946         1         0      6949         1         0      6952         1         0
      6955         1         0      6958         1         0      6961         1         0
      6964         1         0      6968         2         0      6984         2         0
      6995         1         0      7003         1         0      7012         1         0
      7015         1         0      7018         1         0      7021         1         0
      7024         1         0      7027         1         0      7030         1         0
      7032         1         0      7034         1         0      7037         1         0
      7040         1         0      7043         1         0      7046         1         0
      7049         1         0      7052         1         0      7055         1         0
      7059         1         0      7062         1         0      7065         1         0
      7068         1         0      7071         1         0      7074         1         0
      7077         1         0      7080         1         0      7083         1         0
      7086         1         0      7089         1         0      7092         1         0
      7095         1         0      7098         1         0      7102         2         0
      7118         2         0      7129         1         0      7137         1         0
      7146         1         0      7149         1         0      7152         1         0
      7155         1         0      7158         1         0      7161         1         0
      7164         1         0      7166         1         0      7168         1         0
      7171         1         0      7174         1         0      7177         1         0
      7180         1         0      7183         1         0      7186         1         0
      7189         1         0      7193         1         0      7196         1         0
      7199         1         0      7202         1         0      7205         1         0
      7208         1         0      7211         1         0      7214         1         0
      7217         1         0      7220         1         0      7223         1         0
      7226         1         0      7229         1         0      7232         1         0
      7236         2         0      7252         2         0      7263         1         0
      7271         1         0      7280         1         0      7283         1         0
      7286         1         0      7289         1         0      7292         1         0
      7295         1         0      7298         1         0      7300         1         0
      7302         1         0      7305         1         0      7308         1         0
      7311         1         0      7314         1         0      7317         1         0
      7320         1         0      7323         1         0      7327         1         0
      7330         1         0      7333         1         0      7336         1         0
      7339         1         0      7342         1         0      7345         1         0
      7348         1         0      7351         1         0      7354         1         0
      7357         1         0      7360         1         0      7363         1         0
      7366         1         0      7370         2         0      7386         2         0
      7397         1         0      7405         1         0      7414         1         0
      7417         1         0      7420         1         0      7423         1         0
      7426         1         0      7429         1         0      7432         1         0
      7434         1         0      7436         1         0      7439         1         0
      7442         1         0      7445         1         0      7448         1         0
      7451         1         0      7454         1         0      7457         1         0
      7461         1         0      7464         1         0      7467         1         0
      7470         1         0      7473         1         0      7476         1         0
      7479         1         0      7482         1         0      7485         1         0
      7488         1         0      7491         1         0      7494         1         0
      7497         1         0      7500         1         0      7504         2         0
      7520         2         0      7531         1         0      7539         1         0
      7548         1         0      7551         1         0      7554         1         0
      7557         1         0      7560         1         0      7563         1         0
      7566         1         0      7568         1         0      7570         1         0
      7573         1         0      7576         1         0      7579         1         0
      7582         1         0      7585         1         0      7588         1         0
      7591         1         0      7595         1         0      7598         1         0
      7601         1         0      7604         1         0      7607         1         0
      7610         1         0      7613         1         0      7616         1         0
      7619         1         0      7622         1         0      7625         1         0
      7628         1         0      7631         1         0      7634         1         0
      7638         2         0      7654         2         0      7665         1         0
      7673         1         0      7682         1         0      7685         1         0
      7688         1         0      7691         1         0      7694         1         0
      7697         1         0      7700         1         0      7702         1         0
      7704         1         0      7707         1         0      7710         1         0
      7713         1         0      7716         1         0      7719         1         0
      7722         1         0      7725         1         0      7729         1         0
      7732         1         0      7735         1         0      7738         1         0
      7741         1         0      7744         1         0      7747         1         0
      7750         1         0      7753         1         0      7756         1         0
      7759         1         0      7762         1         0      7765         1         0
      7768         1         0      7772         2         0      7788         2         0
      7799         1         0      7807         1         0      7816         1         0
      7819         1         0      7822         1         0      7825         1         0
      7828         1         0      7831         1         0      7834         1         0
      7836         1         0      7838         1         0      7841         1         0
      7844         1         0      7847         1         0      7850         1         0
      7853         1         0      7856         1         0      7859         1         0
      7863         1         0      7866         1         0      7869         1         0
      7872         1         0      7875         1         0      7878         1         0
      7881         1         0      7884         1         0      7887         1         0
      7890         1         0      7893         1         0      7896         1         0
      7899         1         0      7902         1         0      7906         2         0
      7922         2         0      7933         1         0      7941         1         0
      7950         1         0      7953         1         0      7956         1         0
      7959         1         0      7962         1         0      7965         1         0
      7968         1         0      7970         1         0      7972         1         0
      7975         1         0      7978         1         0      7981         1         0
      7984         1         0      7987         1         0      7990         1         0
      7993         1         0      7997         1         0      8000         1         0
      8003         1         0      8006         1         0      8009         1         0
      8012         1         0      8015         1         0      8018         1         0
      8021         1         0      8024         1         0      8027         1         0
      8030         1         0      8033         1         0      8036         1         0
      8040         2         0      8056         2         0      8067         1         0
      8075         1         0      8084         1         0      8087         1         0
      8090         1         0      8093         1         0      8096         1         0
      8099         1         0      8102         1         0      8104         1         0
      8106         1         0      8109         1         0      8112         1         0
      8115         1         0      8118         1         0      8121         1         0
      8124         1         0      8127         1         0      8131         1         0
      8134         1         0      8137         1         0      8140         1         0
      8143         1         0      8146         1         0      8149         1         0
      8152         1         0      8155         1         0      8158         1         0
      8161         1         0      8164         1         0      8167         1         0
      8170         1         0      8174         2         0      8190         2         0
      8201         1         0      8209         1         0      8218         1         0
      8221         1         0      8224         1         0      8227         1         0
      8230         1         0      8233         1         0      8236         1         0
      8238         1         0      8240         1         0      8243         1         0
      8246         1         0      8249         1         0      8252         1         0
      8255         1         0      8258         1         0      8261         1         0
      8265         1         0      8268         1         0      8271         1         0
      8274         1         0      8277         1         0      8280         1         0
      8283         1         0      8286         1         0      8289         1         0
      8292         1         0      8295         1         0      8298         1         0
      8301         1         0      8304         1         0      8308         2         0
      8324         2         0      8335         1         0      8343         1         0
      8352         1         0      8355         1         0      8358         1         0
      8361         1         0      8364         1         0      8367         1         0
      8370         1         0      8372         1         0      8374         1         0
      8377         1         0      8380         1         0      8383         1         0
      8386         1         0      8389         1         0      8392         1         0
      8395         1         0      8399         1         0      8402         1         0
      8405         1         0      8408         1         0      8411         1         0
      8414         1         0      8417         1         0      8420         1         0
      8423         1         0      8426         1         0      8429         1         0
      8432         1         0      8435         1         0      8438         1         0
      8442         2         0      8458         2         0      8469         1         0
      8477         1         0      8486         1         0      8489         1         0
      8492         1         0      8495         1         0      8498         1         0
      8501         1         0      8504         1         0      8506         1         0
      8508         1         0      8511         1         0      8514         1         0
      8517         1         0      8520         1         0      8523         1         0
      8526         1         0      8529         1         0      8533         1         0
      8536         1         0      8539         1         0      8542         1         0
      8545         1         0      8548         1         0      8551         1         0
      8554         1         0      8557         1         0      8560         1         0
      8563         1         0      8566         1         0      8569         1         0
      8572         1         0

         0         0 !NUMLP NUMLPH

         0 !NCRTERM: cross-terms

