PSF EXT CMAP XPLOR

         3 !NTITLE
* GENERATED BY CHARMM-GUI (HTTP://WWW.CHARMM-GUI.ORG) V3.7 ON OCT, 25. 2022. JOB
* GENERATES LIPID PACKING USING BIG SPHERES                                     
*  DATE:    10/25/22     16:30: 8      CREATED BY USER: apache                  

        64 !NATOM
         1 HEAD     1        POPC     POLO     POLO      0.00000       30.9740           0
         2 HEAD     2        POPC     POLO     POLO      0.00000       30.9740           0
         3 HEAD     3        POPC     POLO     POLO      0.00000       30.9740           0
         4 HEAD     4        POPC     POLO     POLO      0.00000       30.9740           0
         5 HEAD     5        POPC     POLO     POLO      0.00000       30.9740           0
         6 HEAD     6        POPC     POLO     POLO      0.00000       30.9740           0
         7 HEAD     7        POPC     POLO     POLO      0.00000       30.9740           0
         8 HEAD     8        POPC     POLO     POLO      0.00000       30.9740           0
         9 HEAD     9        POPC     POLO     POLO      0.00000       30.9740           0
        10 HEAD     10       POPC     POLO     POLO      0.00000       30.9740           0
        11 HEAD     11       POPC     POLO     POLO      0.00000       30.9740           0
        12 HEAD     12       POPC     POLO     POLO      0.00000       30.9740           0
        13 HEAD     13       POPC     POLO     POLO      0.00000       30.9740           0
        14 HEAD     14       POPC     POLO     POLO      0.00000       30.9740           0
        15 HEAD     15       POPC     POLO     POLO      0.00000       30.9740           0
        16 HEAD     16       POPC     POLO     POLO      0.00000       30.9740           0
        17 HEAD     17       POPC     POLO     POLO      0.00000       30.9740           0
        18 HEAD     18       POPC     POLO     POLO      0.00000       30.9740           0
        19 HEAD     19       POPC     POLO     POLO      0.00000       30.9740           0
        20 HEAD     20       POPC     POLO     POLO      0.00000       30.9740           0
        21 HEAD     21       POPC     POLO     POLO      0.00000       30.9740           0
        22 HEAD     22       POPC     POLO     POLO      0.00000       30.9740           0
        23 HEAD     23       POPC     POLO     POLO      0.00000       30.9740           0
        24 HEAD     24       POPC     POLO     POLO      0.00000       30.9740           0
        25 HEAD     25       POPC     POLO     POLO      0.00000       30.9740           0
        26 HEAD     26       POPC     POLO     POLO      0.00000       30.9740           0
        27 HEAD     27       POPC     POLO     POLO      0.00000       30.9740           0
        28 HEAD     28       POPC     POLO     POLO      0.00000       30.9740           0
        29 HEAD     29       POPC     POLO     POLO      0.00000       30.9740           0
        30 HEAD     30       POPC     POLO     POLO      0.00000       30.9740           0
        31 HEAD     31       POPC     POLO     POLO      0.00000       30.9740           0
        32 HEAD     32       POPC     POLO     POLO      0.00000       30.9740           0
        33 HEAD     33       POPC     POLO     POLO      0.00000       30.9740           0
        34 HEAD     34       POPC     POLO     POLO      0.00000       30.9740           0
        35 HEAD     35       POPC     POLO     POLO      0.00000       30.9740           0
        36 HEAD     36       POPC     POLO     POLO      0.00000       30.9740           0
        37 HEAD     37       POPC     POLO     POLO      0.00000       30.9740           0
        38 HEAD     38       POPC     POLO     POLO      0.00000       30.9740           0
        39 HEAD     39       POPC     POLO     POLO      0.00000       30.9740           0
        40 HEAD     40       POPC     POLO     POLO      0.00000       30.9740           0
        41 HEAD     41       POPC     POLO     POLO      0.00000       30.9740           0
        42 HEAD     42       POPC     POLO     POLO      0.00000       30.9740           0
        43 HEAD     43       POPC     POLO     POLO      0.00000       30.9740           0
        44 HEAD     44       POPC     POLO     POLO      0.00000       30.9740           0
        45 HEAD     45       POPC     POLO     POLO      0.00000       30.9740           0
        46 HEAD     46       POPC     POLO     POLO      0.00000       30.9740           0
        47 HEAD     47       POPC     POLO     POLO      0.00000       30.9740           0
        48 HEAD     48       POPC     POLO     POLO      0.00000       30.9740           0
        49 HEAD     49       POPC     POLO     POLO      0.00000       30.9740           0
        50 HEAD     50       POPC     POLO     POLO      0.00000       30.9740           0
        51 HEAD     51       POPC     POLO     POLO      0.00000       30.9740           0
        52 HEAD     52       POPC     POLO     POLO      0.00000       30.9740           0
        53 HEAD     53       POPC     POLO     POLO      0.00000       30.9740           0
        54 HEAD     54       POPC     POLO     POLO      0.00000       30.9740           0
        55 HEAD     55       POPC     POLO     POLO      0.00000       30.9740           0
        56 HEAD     56       POPC     POLO     POLO      0.00000       30.9740           0
        57 HEAD     57       POPC     POLO     POLO      0.00000       30.9740           0
        58 HEAD     58       POPC     POLO     POLO      0.00000       30.9740           0
        59 HEAD     59       POPC     POLO     POLO      0.00000       30.9740           0
        60 HEAD     60       POPC     POLO     POLO      0.00000       30.9740           0
        61 HEAD     61       POPC     POLO     POLO      0.00000       30.9740           0
        62 HEAD     62       POPC     POLO     POLO      0.00000       30.9740           0
        63 HEAD     63       POPC     POLO     POLO      0.00000       30.9740           0
        64 HEAD     64       POPC     POLO     POLO      0.00000       30.9740           0

         0 !NBOND: bonds


         0 !NTHETA: angles


         0 !NPHI: dihedrals


         0 !NIMPHI: impropers


         0 !NDON: donors


         0 !NACC: acceptors


         0 !NNB

         0         0         0         0         0         0         0         0
         0         0         0         0         0         0         0         0
         0         0         0         0         0         0         0         0
         0         0         0         0         0         0         0         0
         0         0         0         0         0         0         0         0
         0         0         0         0         0         0         0         0
         0         0         0         0         0         0         0         0
         0         0         0         0         0         0         0         0

        64         0 !NGRP NST2
         0         0         0         1         0         0         2         0         0
         3         0         0         4         0         0         5         0         0
         6         0         0         7         0         0         8         0         0
         9         0         0        10         0         0        11         0         0
        12         0         0        13         0         0        14         0         0
        15         0         0        16         0         0        17         0         0
        18         0         0        19         0         0        20         0         0
        21         0         0        22         0         0        23         0         0
        24         0         0        25         0         0        26         0         0
        27         0         0        28         0         0        29         0         0
        30         0         0        31         0         0        32         0         0
        33         0         0        34         0         0        35         0         0
        36         0         0        37         0         0        38         0         0
        39         0         0        40         0         0        41         0         0
        42         0         0        43         0         0        44         0         0
        45         0         0        46         0         0        47         0         0
        48         0         0        49         0         0        50         0         0
        51         0         0        52         0         0        53         0         0
        54         0         0        55         0         0        56         0         0
        57         0         0        58         0         0        59         0         0
        60         0         0        61         0         0        62         0         0
        63         0         0

         0         0 !NUMLP NUMLPH

         0 !NCRTERM: cross-terms

