* GENERATED BY CHARMM-GUI (HTTP://WWW.CHARMM-GUI.ORG) V3.7 ON OCT, 25. 2022. JOB
* GENERATES LIPID PACKING USING BIG SPHERES
*  DATE:    10/25/22     16:30: 8      CREATED BY USER: apache
*
        64  EXT
         1         1  POPC      POLO           -7.0276098623       16.5059348234       12.0478777811  HEAD      1               0.0000000000
         2         2  POPC      POLO            9.5610355655      -12.0223854326       11.9627115855  HEAD      2               0.0000000000
         3         3  POPC      POLO          -18.7603045294        2.2358913580       11.9477517731  HEAD      3               0.0000000000
         4         4  POPC      POLO          -15.0269150419      -19.8646249310       11.9743895637  HEAD      4               0.0000000000
         5         5  POPC      POLO           21.1352084920        7.5560072861       11.9718796014  HEAD      5               0.0000000000
         6         6  POPC      POLO          -20.2476790692       -6.2090071161       11.9707765267  HEAD      6               0.0000000000
         7         7  POPC      POLO           19.8279098139       -0.8746681970       11.9695240607  HEAD      7               0.0000000000
         8         8  POPC      POLO          -23.3309487392      -22.5855191678       12.1396338044  HEAD      8               0.0000000000
         9         9  POPC      POLO          -17.0684173532       10.4573675107       11.9231318542  HEAD      9               0.0000000000
        10        10  POPC      POLO            6.8416109005       18.2158036970       12.0215697826  HEAD      10              0.0000000000
        11        11  POPC      POLO           15.1343367546       21.1866410007       11.9998926001  HEAD      11              0.0000000000
        12        12  POPC      POLO           -5.2956183681       -9.3140482486       12.0316052982  HEAD      12              0.0000000000
        13        13  POPC      POLO           -3.8821363869       -0.4829232076       12.0187640754  HEAD      13              0.0000000000
        14        14  POPC      POLO          -21.7397953129      -14.4850005026       11.9304034289  HEAD      14              0.0000000000
        15        15  POPC      POLO           16.5837761824      -17.4620174977       12.0346697258  HEAD      15              0.0000000000
        16        16  POPC      POLO            2.8322359001       -6.5770400258       12.0532063228  HEAD      16              0.0000000000
        17        17  POPC      POLO          -11.9372282610       -3.0612933934       11.9972578729  HEAD      17              0.0000000000
        18        18  POPC      POLO          -13.2759377474      -11.7282972406       11.8816230027  HEAD      18              0.0000000000
        19        19  POPC      POLO           17.8658978544       -9.2179791916       12.0879975269  HEAD      19              0.0000000000
        20        20  POPC      POLO           10.8195891785       -3.6341256659       12.2096402206  HEAD      20              0.0000000000
        21        21  POPC      POLO            4.0676227896        1.9956790947       11.9241477393  HEAD      21              0.0000000000
        22        22  POPC      POLO          -15.3915824133       18.8673088755       12.0328850531  HEAD      22              0.0000000000
        23        23  POPC      POLO           14.4556509187       12.8830058886       12.0155227157  HEAD      23              0.0000000000
        24        24  POPC      POLO            8.2996493374      -20.2077228095       12.0669734965  HEAD      24              0.0000000000
        25        25  POPC      POLO            6.0611516567       10.1827678644       12.0514628328  HEAD      25              0.0000000000
        26        26  POPC      POLO          -10.4255372605        5.5581211546       12.0565393434  HEAD      26              0.0000000000
        27        27  POPC      POLO           -6.8370520426      -18.4985947962       11.9356311817  HEAD      27              0.0000000000
        28        28  POPC      POLO           12.4765447551        4.5409672972       11.9977416370  HEAD      28              0.0000000000
        29        29  POPC      POLO           -0.3350879894       22.3011068445       12.0402513807  HEAD      29              0.0000000000
        30        30  POPC      POLO           -2.6374539456        8.8093502506       12.1391113641  HEAD      30              0.0000000000
        31        31  POPC      POLO           22.4235984034       15.9941880855       11.9150327389  HEAD      31              0.0000000000
        32        32  POPC      POLO            1.1791044116      -15.3811872975       12.0009630277  HEAD      32              0.0000000000
        33        33  POPC      POLO           -4.3181148276      -21.6932336744      -12.0964945933  HEAD      33              0.0000000000
        34        34  POPC      POLO           -5.7500893425       16.7234447957      -12.0983508330  HEAD      34              0.0000000000
        35        35  POPC      POLO          -16.0496532396       -2.4234392540      -11.9504744830  HEAD      35              0.0000000000
        36        36  POPC      POLO            2.2847728040       11.3506674979      -11.9495214137  HEAD      36              0.0000000000
        37        37  POPC      POLO           22.4960048647       -4.8571313029      -11.9844802825  HEAD      37              0.0000000000
        38        38  POPC      POLO           -9.5152185348       -7.9705696261      -12.0622000377  HEAD      38              0.0000000000
        39        39  POPC      POLO          -17.9255717238      -10.7276195339      -12.0888179104  HEAD      39              0.0000000000
        40        40  POPC      POLO           14.3504954673       -7.5575836219      -12.1231902638  HEAD      40              0.0000000000
        41        41  POPC      POLO           10.4874579281       22.8724315866      -12.0121917533  HEAD      41              0.0000000000
        42        42  POPC      POLO           18.4672829050       10.6247533267      -12.0224252965  HEAD      42              0.0000000000
        43        43  POPC      POLO           -6.3456494410        8.5052047285      -12.1192691069  HEAD      43              0.0000000000
        44        44  POPC      POLO            6.1425503137      -10.1674737458      -12.0106743914  HEAD      44              0.0000000000
        45        45  POPC      POLO           18.7658094606      -22.7268117915      -12.0413576651  HEAD      45              0.0000000000
        46        46  POPC      POLO            3.9659678031      -18.3360318694      -12.0873850387  HEAD      46              0.0000000000
        47        47  POPC      POLO          -14.9942349729       13.8390403028      -11.9794613563  HEAD      47              0.0000000000
        48        48  POPC      POLO           10.8525065426       14.6400588413      -12.1386930841  HEAD      48              0.0000000000
        49        49  POPC      POLO            0.5734535061        3.2790073630      -12.0968809077  HEAD      49              0.0000000000
        50        50  POPC      POLO            9.2227363553        6.4968089750      -11.9397218456  HEAD      50              0.0000000000
        51        51  POPC      POLO           16.1122941803        1.2992760028      -11.9809179056  HEAD      51              0.0000000000
        52        52  POPC      POLO           -0.5322563525       -4.9951713258      -11.8686865022  HEAD      52              0.0000000000
        53        53  POPC      POLO           -2.6168159921      -13.3400375476      -12.0774024197  HEAD      53              0.0000000000
        54        54  POPC      POLO           12.7315583099      -15.8798699278      -12.0682229879  HEAD      54              0.0000000000
        55        55  POPC      POLO          -14.3949955688        5.7245187517      -11.9141727538  HEAD      55              0.0000000000
        56        56  POPC      POLO          -11.3661385603      -16.5321844884      -11.9755313192  HEAD      56              0.0000000000
        57        57  POPC      POLO            7.7310407658       -1.9764397100      -12.0564299239  HEAD      57              0.0000000000
        58        58  POPC      POLO          -12.7717082774       21.8271158390      -12.0919298219  HEAD      58              0.0000000000
        59        59  POPC      POLO           -7.5508869217        0.1456699489      -12.0120977862  HEAD      59              0.0000000000
        60        60  POPC      POLO           20.6110754758      -13.2462332387      -11.9614234398  HEAD      60              0.0000000000
        61        61  POPC      POLO          -22.3295916145        4.0545337413      -11.8738787546  HEAD      61              0.0000000000
        62        62  POPC      POLO            2.5744070668       19.8035764049      -11.9752900034  HEAD      62              0.0000000000
        63        63  POPC      POLO          -19.9903739488      -20.2306760992      -12.0679148736  HEAD      63              0.0000000000
        64        64  POPC      POLO          -22.5090965482       17.6952709899      -12.0479751136  HEAD      64              0.0000000000
