PSF EXT CMAP XPLOR

         3 !NTITLE
* GENERATED BY CHARMM-GUI (HTTP://WWW.CHARMM-GUI.ORG) V3.7 ON OCT, 25. 2022. JOB
* GENERATES ION CONFORMATION USING MONTE-CARLO SIMULATION                       
*  DATE:    10/25/22     16:32: 6      CREATED BY USER: apache                  

        36 !NATOM
         1 IONS     1        POT      POT      POT       1.00000       39.0983           0
         2 IONS     2        POT      POT      POT       1.00000       39.0983           0
         3 IONS     3        POT      POT      POT       1.00000       39.0983           0
         4 IONS     4        POT      POT      POT       1.00000       39.0983           0
         5 IONS     5        POT      POT      POT       1.00000       39.0983           0
         6 IONS     6        POT      POT      POT       1.00000       39.0983           0
         7 IONS     7        POT      POT      POT       1.00000       39.0983           0
         8 IONS     8        POT      POT      POT       1.00000       39.0983           0
         9 IONS     9        POT      POT      POT       1.00000       39.0983           0
        10 IONS     10       POT      POT      POT       1.00000       39.0983           0
        11 IONS     11       POT      POT      POT       1.00000       39.0983           0
        12 IONS     12       POT      POT      POT       1.00000       39.0983           0
        13 IONS     13       POT      POT      POT       1.00000       39.0983           0
        14 IONS     14       POT      POT      POT       1.00000       39.0983           0
        15 IONS     15       POT      POT      POT       1.00000       39.0983           0
        16 IONS     16       POT      POT      POT       1.00000       39.0983           0
        17 IONS     17       POT      POT      POT       1.00000       39.0983           0
        18 IONS     18       POT      POT      POT       1.00000       39.0983           0
        19 IONS     19       CLA      CLA      CLA      -1.00000       35.4500           0
        20 IONS     20       CLA      CLA      CLA      -1.00000       35.4500           0
        21 IONS     21       CLA      CLA      CLA      -1.00000       35.4500           0
        22 IONS     22       CLA      CLA      CLA      -1.00000       35.4500           0
        23 IONS     23       CLA      CLA      CLA      -1.00000       35.4500           0
        24 IONS     24       CLA      CLA      CLA      -1.00000       35.4500           0
        25 IONS     25       CLA      CLA      CLA      -1.00000       35.4500           0
        26 IONS     26       CLA      CLA      CLA      -1.00000       35.4500           0
        27 IONS     27       CLA      CLA      CLA      -1.00000       35.4500           0
        28 IONS     28       CLA      CLA      CLA      -1.00000       35.4500           0
        29 IONS     29       CLA      CLA      CLA      -1.00000       35.4500           0
        30 IONS     30       CLA      CLA      CLA      -1.00000       35.4500           0
        31 IONS     31       CLA      CLA      CLA      -1.00000       35.4500           0
        32 IONS     32       CLA      CLA      CLA      -1.00000       35.4500           0
        33 IONS     33       CLA      CLA      CLA      -1.00000       35.4500           0
        34 IONS     34       CLA      CLA      CLA      -1.00000       35.4500           0
        35 IONS     35       CLA      CLA      CLA      -1.00000       35.4500           0
        36 IONS     36       CLA      CLA      CLA      -1.00000       35.4500           0

         0 !NBOND: bonds


         0 !NTHETA: angles


         0 !NPHI: dihedrals


         0 !NIMPHI: impropers


         0 !NDON: donors


         0 !NACC: acceptors


         0 !NNB

         0         0         0         0         0         0         0         0
         0         0         0         0         0         0         0         0
         0         0         0         0         0         0         0         0
         0         0         0         0         0         0         0         0
         0         0         0         0

        36         0 !NGRP NST2
         0         2         0         1         2         0         2         2         0
         3         2         0         4         2         0         5         2         0
         6         2         0         7         2         0         8         2         0
         9         2         0        10         2         0        11         2         0
        12         2         0        13         2         0        14         2         0
        15         2         0        16         2         0        17         2         0
        18         2         0        19         2         0        20         2         0
        21         2         0        22         2         0        23         2         0
        24         2         0        25         2         0        26         2         0
        27         2         0        28         2         0        29         2         0
        30         2         0        31         2         0        32         2         0
        33         2         0        34         2         0        35         2         0

         0         0 !NUMLP NUMLPH

         0 !NCRTERM: cross-terms

