* GENERATED BY CHARMM-GUI (HTTP://WWW.CHARMM-GUI.ORG) V3.7 ON OCT, 25. 2022. JOB
* INPUT GENERATION
*  DATE:    10/25/22     16:34:18      CREATED BY USER: apache
*
     29852  EXT
         1         1  POPC      N              -5.2709667587       -2.0687232683       19.4119419663  MEMB      1               0.0000000000
         2         1  POPC      C12            -4.8113938362       -1.1349879899       18.2870397894  MEMB      1               0.0000000000
         3         1  POPC      H12A           -5.0787165002       -0.1068143140       18.5317681963  MEMB      1               0.0000000000
         4         1  POPC      H12B           -5.3652598446       -1.3996012948       17.3950647355  MEMB      1               0.0000000000
         5         1  POPC      C13            -4.6989157257       -1.6867779352       20.7469253845  MEMB      1               0.0000000000
         6         1  POPC      H13A           -5.1422616720       -2.2608922896       21.5444529533  MEMB      1               0.0000000000
         7         1  POPC      H13B           -3.6217635023       -1.8927251407       20.7696367830  MEMB      1               0.0000000000
         8         1  POPC      H13C           -4.7552964157       -0.6217842144       20.9392552610  MEMB      1               0.0000000000
         9         1  POPC      C14            -6.7654561537       -2.1032151485       19.4373316983  MEMB      1               0.0000000000
        10         1  POPC      H14A           -7.0894078688       -2.9839126422       19.9797348727  MEMB      1               0.0000000000
        11         1  POPC      H14B           -7.1889933640       -1.2370135586       19.9238314415  MEMB      1               0.0000000000
        12         1  POPC      H14C           -7.1534724844       -2.1904536708       18.4262863054  MEMB      1               0.0000000000
        13         1  POPC      C15            -4.8377994944       -3.4799605082       19.1710203267  MEMB      1               0.0000000000
        14         1  POPC      H15A           -5.1067867691       -3.8323079771       18.1839065081  MEMB      1               0.0000000000
        15         1  POPC      H15B           -5.2799821490       -4.1575190046       19.9035722584  MEMB      1               0.0000000000
        16         1  POPC      H15C           -3.7620891609       -3.5970873701       19.2818800480  MEMB      1               0.0000000000
        17         1  POPC      C11            -3.3172233598       -1.0590569425       17.8743790468  MEMB      1               0.0000000000
        18         1  POPC      H11A           -3.2399371594       -0.6084724742       16.8559099275  MEMB      1               0.0000000000
        19         1  POPC      H11B           -2.8894176975       -2.0827492721       17.7955909295  MEMB      1               0.0000000000
        20         1  POPC      P              -2.6908629783        1.2949661451       18.8853741757  MEMB      1               0.0000000000
        21         1  POPC      O13            -1.7366895101        1.7725004150       19.9046765483  MEMB      1               0.0000000000
        22         1  POPC      O14            -4.1404374122        1.5684467702       19.1258788184  MEMB      1               0.0000000000
        23         1  POPC      O12            -2.5608168267       -0.2940721173       18.7983189494  MEMB      1               0.0000000000
        24         1  POPC      O11            -2.2678268413        1.7871849747       17.4408909697  MEMB      1               0.0000000000
        25         1  POPC      C1             -2.8196262123        2.9615379597       16.8630833017  MEMB      1               0.0000000000
        26         1  POPC      HA             -2.1545479015        3.2945665250       16.0314484974  MEMB      1               0.0000000000
        27         1  POPC      HB             -2.8538124497        3.7986787783       17.5997373769  MEMB      1               0.0000000000
        28         1  POPC      C2             -4.2098539454        2.6528734971       16.2462543131  MEMB      1               0.0000000000
        29         1  POPC      HS             -4.8965715545        2.3879544995       17.0830180291  MEMB      1               0.0000000000
        30         1  POPC      O21            -4.0329136989        1.5486887665       15.3301114939  MEMB      1               0.0000000000
        31         1  POPC      C21            -5.0857722372        0.8588482292       14.9487894731  MEMB      1               0.0000000000
        32         1  POPC      O22            -6.2277425762        1.0667854612       15.3207350866  MEMB      1               0.0000000000
        33         1  POPC      C22            -4.5917198534       -0.3336716454       14.0766458340  MEMB      1               0.0000000000
        34         1  POPC      H2R            -4.0256436638       -1.0186396634       14.7422418139  MEMB      1               0.0000000000
        35         1  POPC      H2S            -3.8874698195        0.0955514247       13.3360880899  MEMB      1               0.0000000000
        36         1  POPC      C3             -4.8167716010        3.9068717161       15.5465277650  MEMB      1               0.0000000000
        37         1  POPC      HX             -4.5973235519        4.7810305146       16.1996370771  MEMB      1               0.0000000000
        38         1  POPC      HY             -5.9255433133        3.8240548700       15.5118765234  MEMB      1               0.0000000000
        39         1  POPC      O31            -4.2254191883        4.1873610844       14.2689815328  MEMB      1               0.0000000000
        40         1  POPC      C31            -4.9935394854        3.9897516273       13.2015598158  MEMB      1               0.0000000000
        41         1  POPC      O32            -6.0885954459        3.4545793931       13.1895264449  MEMB      1               0.0000000000
        42         1  POPC      C32            -4.3057962904        4.6153506038       11.9896181393  MEMB      1               0.0000000000
        43         1  POPC      H2X            -3.3642952327        5.1069336999       12.3120126348  MEMB      1               0.0000000000
        44         1  POPC      H2Y            -4.9181093858        5.4135381395       11.5581119954  MEMB      1               0.0000000000
        45         1  POPC      C23            -5.6377381333       -1.1886959587       13.2990619671  MEMB      1               0.0000000000
        46         1  POPC      H3R            -5.9988394895       -0.6010010520       12.4231649124  MEMB      1               0.0000000000
        47         1  POPC      H3S            -6.5183176984       -1.4381050720       13.9328651079  MEMB      1               0.0000000000
        48         1  POPC      C24            -5.0655425654       -2.5056100381       12.7314214707  MEMB      1               0.0000000000
        49         1  POPC      H4R            -5.8923211237       -3.0826474682       12.2536014433  MEMB      1               0.0000000000
        50         1  POPC      H4S            -4.6405087793       -3.1377742000       13.5438391459  MEMB      1               0.0000000000
        51         1  POPC      C25            -3.9585247521       -2.2821942696       11.6936176313  MEMB      1               0.0000000000
        52         1  POPC      H5R            -3.4536237594       -3.2594154102       11.5104841282  MEMB      1               0.0000000000
        53         1  POPC      H5S            -3.1926297698       -1.5861411184       12.1006597622  MEMB      1               0.0000000000
        54         1  POPC      C26            -4.4573665602       -1.7696705780       10.3385119998  MEMB      1               0.0000000000
        55         1  POPC      H6R            -4.8520470469       -0.7352735085       10.4261027697  MEMB      1               0.0000000000
        56         1  POPC      H6S            -5.3077085039       -2.4018797002        9.9957178852  MEMB      1               0.0000000000
        57         1  POPC      C27            -3.3247768013       -1.8536178228        9.3030702861  MEMB      1               0.0000000000
        58         1  POPC      H7R            -2.8096626934       -2.8302284073        9.4444923258  MEMB      1               0.0000000000
        59         1  POPC      H7S            -2.5724882222       -1.0621904958        9.5077229468  MEMB      1               0.0000000000
        60         1  POPC      C28            -3.8316156714       -1.7920708606        7.8595738617  MEMB      1               0.0000000000
        61         1  POPC      H8R            -4.2811792128       -0.8146334946        7.6443888753  MEMB      1               0.0000000000
        62         1  POPC      H8S            -4.7170414062       -2.4517127009        7.7803994436  MEMB      1               0.0000000000
        63         1  POPC      C29            -2.7837929848       -2.0958771868        6.8192153517  MEMB      1               0.0000000000
        64         1  POPC      H91            -1.7990694707       -1.6205113909        6.9316661508  MEMB      1               0.0000000000
        65         1  POPC      C210           -2.9426999410       -3.0190531758        5.8713702052  MEMB      1               0.0000000000
        66         1  POPC      H101           -2.2279442448       -3.2348716729        5.0724444157  MEMB      1               0.0000000000
        67         1  POPC      C211           -4.0939948681       -3.8588072216        5.6917850564  MEMB      1               0.0000000000
        68         1  POPC      H11R           -4.4947692327       -4.1485675224        6.6850130032  MEMB      1               0.0000000000
        69         1  POPC      H11S           -3.7131349282       -4.7903271802        5.2039376239  MEMB      1               0.0000000000
        70         1  POPC      C212           -5.0801567717       -3.1020160235        4.8078127019  MEMB      1               0.0000000000
        71         1  POPC      H12R           -5.0972117368       -2.0135905591        4.9813339969  MEMB      1               0.0000000000
        72         1  POPC      H12S           -6.1051583164       -3.4080276725        5.1058348764  MEMB      1               0.0000000000
        73         1  POPC      C213           -4.8070294965       -3.4265936585        3.3345427278  MEMB      1               0.0000000000
        74         1  POPC      H13R           -4.7350940865       -4.5255528673        3.2602462954  MEMB      1               0.0000000000
        75         1  POPC      H13S           -3.7958827955       -3.0781322769        3.0389153580  MEMB      1               0.0000000000
        76         1  POPC      C214           -5.8537556025       -2.8317160613        2.3873432972  MEMB      1               0.0000000000
        77         1  POPC      H14R           -6.1434923696       -1.8391484974        2.7977958959  MEMB      1               0.0000000000
        78         1  POPC      H14S           -6.7833425923       -3.4377669472        2.3116454569  MEMB      1               0.0000000000
        79         1  POPC      C215           -5.3207169478       -2.6057805624        0.9765487025  MEMB      1               0.0000000000
        80         1  POPC      H15R           -4.2590099750       -2.2758578326        1.0054933950  MEMB      1               0.0000000000
        81         1  POPC      H15S           -5.9275084281       -1.7794383168        0.5504408789  MEMB      1               0.0000000000
        82         1  POPC      C216           -5.4873695969       -3.8179538494        0.0596006283  MEMB      1               0.0000000000
        83         1  POPC      H16R           -6.5717405084       -4.0807425748        0.0225796981  MEMB      1               0.0000000000
        84         1  POPC      H16S           -4.9514502568       -4.6951220543        0.4609280563  MEMB      1               0.0000000000
        85         1  POPC      C217           -4.9942895363       -3.5099329345       -1.3455901292  MEMB      1               0.0000000000
        86         1  POPC      H17R           -4.2873367459       -4.2606916256       -1.7515027982  MEMB      1               0.0000000000
        87         1  POPC      H17S           -4.4673183464       -2.5319134248       -1.2941711545  MEMB      1               0.0000000000
        88         1  POPC      C218           -6.1703725801       -3.3945429205       -2.2829343266  MEMB      1               0.0000000000
        89         1  POPC      H18R           -5.8849432103       -2.8589474557       -3.1972333505  MEMB      1               0.0000000000
        90         1  POPC      H18S           -6.9443791014       -2.8583789467       -1.7301773565  MEMB      1               0.0000000000
        91         1  POPC      H18T           -6.6442473738       -4.3486954796       -2.5584418298  MEMB      1               0.0000000000
        92         1  POPC      C33            -4.1060428193        3.5563569658       10.9147031860  MEMB      1               0.0000000000
        93         1  POPC      H3X            -3.7384583631        4.0186832144        9.9680169576  MEMB      1               0.0000000000
        94         1  POPC      H3Y            -4.9785431831        2.9233335627       10.6647445914  MEMB      1               0.0000000000
        95         1  POPC      C34            -3.0702288782        2.6285236616       11.4255718690  MEMB      1               0.0000000000
        96         1  POPC      H4X            -3.1258618994        2.2691926194       12.4663085969  MEMB      1               0.0000000000
        97         1  POPC      H4Y            -2.2006877258        3.3526177554       11.4677386357  MEMB      1               0.0000000000
        98         1  POPC      C35            -2.9591800390        1.3956004713       10.4971434360  MEMB      1               0.0000000000
        99         1  POPC      H5X            -3.8217495788        0.9385019044       10.0151101467  MEMB      1               0.0000000000
       100         1  POPC      H5Y            -2.3223812871        0.6372035865       11.0446713946  MEMB      1               0.0000000000
       101         1  POPC      C36            -2.1385566251        1.7479484707        9.3184897403  MEMB      1               0.0000000000
       102         1  POPC      H6X            -1.2686631110        1.0881100784        9.4317520131  MEMB      1               0.0000000000
       103         1  POPC      H6Y            -1.8336674601        2.6748990322        9.7668086438  MEMB      1               0.0000000000
       104         1  POPC      C37            -2.5630582617        2.3326492094        7.9679584810  MEMB      1               0.0000000000
       105         1  POPC      H7X            -1.8707936653        3.0418140642        7.4658786610  MEMB      1               0.0000000000
       106         1  POPC      H7Y            -3.3917362188        3.0478567646        8.0127538824  MEMB      1               0.0000000000
       107         1  POPC      C38            -2.4798965803        1.2613550200        6.9449904736  MEMB      1               0.0000000000
       108         1  POPC      H8X            -3.2119728046        0.5898181424        7.3353740966  MEMB      1               0.0000000000
       109         1  POPC      H8Y            -1.5614331028        0.6366086649        6.8475011175  MEMB      1               0.0000000000
       110         1  POPC      C39            -2.6346717636        1.9367087320        5.6400976211  MEMB      1               0.0000000000
       111         1  POPC      H9X            -1.9126073645        2.7813904349        5.4710811453  MEMB      1               0.0000000000
       112         1  POPC      H9Y            -3.6556524612        2.3687543722        5.6471709763  MEMB      1               0.0000000000
       113         1  POPC      C310           -2.3469594168        0.9696129571        4.5564200225  MEMB      1               0.0000000000
       114         1  POPC      H10X           -3.0298778754        0.0923495019        4.6289298625  MEMB      1               0.0000000000
       115         1  POPC      H10Y           -1.2953392548        0.5909256671        4.5832811715  MEMB      1               0.0000000000
       116         1  POPC      C311           -2.5968926264        1.7978419045        3.3467063959  MEMB      1               0.0000000000
       117         1  POPC      H11X           -2.6958676324        1.0702215005        2.5900174448  MEMB      1               0.0000000000
       118         1  POPC      H11Y           -1.7785871552        2.4987415763        3.0798785644  MEMB      1               0.0000000000
       119         1  POPC      C312           -3.9678595438        2.4115384924        3.2542250055  MEMB      1               0.0000000000
       120         1  POPC      H12X           -3.9947447817        3.3735167825        3.7892126960  MEMB      1               0.0000000000
       121         1  POPC      H12Y           -4.7424290329        1.7021623939        3.6466600105  MEMB      1               0.0000000000
       122         1  POPC      C313           -4.2275130255        2.6100237696        1.8050870047  MEMB      1               0.0000000000
       123         1  POPC      H13X           -3.3231716335        3.0036991160        1.2791493452  MEMB      1               0.0000000000
       124         1  POPC      H13Y           -5.0379395546        3.3311277604        1.6067653644  MEMB      1               0.0000000000
       125         1  POPC      C314           -4.6505673314        1.2957460359        1.2362112474  MEMB      1               0.0000000000
       126         1  POPC      H14X           -5.5437533644        0.7858345717        1.6456757090  MEMB      1               0.0000000000
       127         1  POPC      H14Y           -3.8822185497        0.5058640736        1.2525186013  MEMB      1               0.0000000000
       128         1  POPC      C315           -4.9941197193        1.6788355318       -0.1025264250  MEMB      1               0.0000000000
       129         1  POPC      H15X           -4.0909822127        2.1249592102       -0.5567952795  MEMB      1               0.0000000000
       130         1  POPC      H15Y           -5.6397296681        2.5565888770       -0.1595185543  MEMB      1               0.0000000000
       131         1  POPC      C316           -5.7042075789        0.4649590891       -0.5826972063  MEMB      1               0.0000000000
       132         1  POPC      H16X           -5.0644301870       -0.4381417909       -0.6881542629  MEMB      1               0.0000000000
       133         1  POPC      H16Y           -5.9461936821        0.3309111088       -1.6198260152  MEMB      1               0.0000000000
       134         1  POPC      H16Z           -6.6709983603        0.7775231009       -0.9599876051  MEMB      1               0.0000000000
       135         2  POPC      N               5.6575466823        3.3040107468       20.0805936430  MEMB      2               0.0000000000
       136         2  POPC      C12             5.1040313131        1.9340889574       20.4909556268  MEMB      2               0.0000000000
       137         2  POPC      H12A            4.4108666402        2.0499195670       21.3136661813  MEMB      2               0.0000000000
       138         2  POPC      H12B            5.8948231424        1.3078641678       20.8819013363  MEMB      2               0.0000000000
       139         2  POPC      C13             4.5098969002        4.2733010770       20.0266317959  MEMB      2               0.0000000000
       140         2  POPC      H13A            3.9661638399        4.3251980293       20.9598079345  MEMB      2               0.0000000000
       141         2  POPC      H13B            4.8079103461        5.2838067847       19.7610017179  MEMB      2               0.0000000000
       142         2  POPC      H13C            3.7892225380        3.9309044081       19.2768118232  MEMB      2               0.0000000000
       143         2  POPC      C14             6.6841684396        3.7998406400       21.0534891575  MEMB      2               0.0000000000
       144         2  POPC      H14A            6.7940688982        4.8764047035       20.9825573448  MEMB      2               0.0000000000
       145         2  POPC      H14B            6.3912589528        3.5470030524       22.0665717880  MEMB      2               0.0000000000
       146         2  POPC      H14C            7.6507604712        3.3697044762       20.8450892894  MEMB      2               0.0000000000
       147         2  POPC      C15             6.2651469020        3.1788276360       18.7153716763  MEMB      2               0.0000000000
       148         2  POPC      H15A            6.9246666687        2.3226653803       18.6905395264  MEMB      2               0.0000000000
       149         2  POPC      H15B            6.7766084763        4.0779633040       18.3990986475  MEMB      2               0.0000000000
       150         2  POPC      H15C            5.4813973259        2.9497624434       17.9876871472  MEMB      2               0.0000000000
       151         2  POPC      C11             4.3594625535        1.0757798979       19.4281404353  MEMB      2               0.0000000000
       152         2  POPC      H11A            4.0578461319        0.1248730869       19.9268259919  MEMB      2               0.0000000000
       153         2  POPC      H11B            5.0412833736        0.7886964655       18.5945588174  MEMB      2               0.0000000000
       154         2  POPC      P               2.3538316247        0.8752701064       17.8675688441  MEMB      2               0.0000000000
       155         2  POPC      O13             1.0554058285        1.5472553637       17.7609507807  MEMB      2               0.0000000000
       156         2  POPC      O14             2.4261799881       -0.5399095845       18.2701401884  MEMB      2               0.0000000000
       157         2  POPC      O12             3.1886452769        1.7203400376       18.9363729909  MEMB      2               0.0000000000
       158         2  POPC      O11             3.2144141073        1.1496194303       16.5696874245  MEMB      2               0.0000000000
       159         2  POPC      C1              2.9232303064        2.3697327047       15.8740482245  MEMB      2               0.0000000000
       160         2  POPC      HA              3.8691642182        2.8933064414       15.6299368877  MEMB      2               0.0000000000
       161         2  POPC      HB              2.2446147820        3.0829590945       16.4040048817  MEMB      2               0.0000000000
       162         2  POPC      C2              2.2220709476        2.0708392126       14.5706983188  MEMB      2               0.0000000000
       163         2  POPC      HS              1.2834725095        1.4921474787       14.8054964103  MEMB      2               0.0000000000
       164         2  POPC      O21             3.1793302451        1.3647969550       13.7787305715  MEMB      2               0.0000000000
       165         2  POPC      C21             2.6862325056        0.3237132980       13.2033981183  MEMB      2               0.0000000000
       166         2  POPC      O22             1.4997885886        0.0145265880       13.1552447722  MEMB      2               0.0000000000
       167         2  POPC      C22             3.8415567739       -0.4038915674       12.5048122871  MEMB      2               0.0000000000
       168         2  POPC      H2R             3.2910141318       -1.1081221099       11.8673671299  MEMB      2               0.0000000000
       169         2  POPC      H2S             4.5013746055       -0.9508008872       13.2150441636  MEMB      2               0.0000000000
       170         2  POPC      C3              1.8690321550        3.3824302937       13.8702095249  MEMB      2               0.0000000000
       171         2  POPC      HX              2.8151516368        3.9101495485       13.6612745859  MEMB      2               0.0000000000
       172         2  POPC      HY              1.1492321800        4.0327003932       14.4144340311  MEMB      2               0.0000000000
       173         2  POPC      O31             1.3960359702        3.0893407194       12.6035671460  MEMB      2               0.0000000000
       174         2  POPC      C31             0.2395139525        2.5706200472       12.6113549849  MEMB      2               0.0000000000
       175         2  POPC      O32            -0.6194029135        2.5685436686       13.4868296605  MEMB      2               0.0000000000
       176         2  POPC      C32             0.1333676356        2.1446161885       11.1904779838  MEMB      2               0.0000000000
       177         2  POPC      H2X            -0.8933100299        1.9753707207       11.3407968062  MEMB      2               0.0000000000
       178         2  POPC      H2Y             0.4848927101        1.1330361644       10.9647952076  MEMB      2               0.0000000000
       179         2  POPC      C23             4.6659498734        0.4690949684       11.6048784698  MEMB      2               0.0000000000
       180         2  POPC      H3R             5.6633742884        0.0062684921       11.4263205903  MEMB      2               0.0000000000
       181         2  POPC      H3S             4.8129697309        1.4355207817       12.1293271144  MEMB      2               0.0000000000
       182         2  POPC      C24             3.9353917325        0.6707692191       10.2900950569  MEMB      2               0.0000000000
       183         2  POPC      H4R             2.9754424080        1.1904956490       10.5130862948  MEMB      2               0.0000000000
       184         2  POPC      H4S             3.6726205494       -0.3002096729        9.8100377943  MEMB      2               0.0000000000
       185         2  POPC      C25             4.8438394810        1.4541799084        9.3523826712  MEMB      2               0.0000000000
       186         2  POPC      H5R             4.3107601489        1.6793230682        8.4059196471  MEMB      2               0.0000000000
       187         2  POPC      H5S             5.6945086921        0.7784402474        9.1148095261  MEMB      2               0.0000000000
       188         2  POPC      C26             5.3849355641        2.7581447919        9.9686421114  MEMB      2               0.0000000000
       189         2  POPC      H6R             6.1936159133        3.1511301856        9.3190783476  MEMB      2               0.0000000000
       190         2  POPC      H6S             5.8560360146        2.5935058060       10.9553992662  MEMB      2               0.0000000000
       191         2  POPC      C27             4.2813545421        3.8080635901       10.0917452864  MEMB      2               0.0000000000
       192         2  POPC      H7R             4.4084065957        4.4803196192       10.9633192354  MEMB      2               0.0000000000
       193         2  POPC      H7S             3.3538202494        3.2514311704       10.2732977214  MEMB      2               0.0000000000
       194         2  POPC      C28             4.2190507881        4.6102321670        8.7971570532  MEMB      2               0.0000000000
       195         2  POPC      H8R             4.3066724943        3.8818646481        7.9598468135  MEMB      2               0.0000000000
       196         2  POPC      H8S             5.0964264385        5.2857140678        8.7338761782  MEMB      2               0.0000000000
       197         2  POPC      C29             3.0123488791        5.4590338523        8.6348048625  MEMB      2               0.0000000000
       198         2  POPC      H91             2.6064021924        5.9827757953        9.5144874473  MEMB      2               0.0000000000
       199         2  POPC      C210            2.3639803653        5.5823899201        7.4896568144  MEMB      2               0.0000000000
       200         2  POPC      H101            1.5881344572        6.3349839592        7.5434168473  MEMB      2               0.0000000000
       201         2  POPC      C211            2.6413132966        4.9408692793        6.1429906804  MEMB      2               0.0000000000
       202         2  POPC      H11R            1.7852044465        4.9311761585        5.4264786758  MEMB      2               0.0000000000
       203         2  POPC      H11S            2.9248065927        3.8821173910        6.2486128830  MEMB      2               0.0000000000
       204         2  POPC      C212            3.7909647020        5.6378336373        5.4492493750  MEMB      2               0.0000000000
       205         2  POPC      H12R            4.6367860842        5.7285755200        6.1677786395  MEMB      2               0.0000000000
       206         2  POPC      H12S            3.4606851868        6.6698035559        5.1864102048  MEMB      2               0.0000000000
       207         2  POPC      C213            4.2450171139        4.8399033375        4.2109069533  MEMB      2               0.0000000000
       208         2  POPC      H13R            3.4060960742        4.7891756272        3.4830629874  MEMB      2               0.0000000000
       209         2  POPC      H13S            4.5830653671        3.8260715651        4.5041444485  MEMB      2               0.0000000000
       210         2  POPC      C214            5.3940218480        5.5579355289        3.5469537054  MEMB      2               0.0000000000
       211         2  POPC      H14R            6.1986826287        5.6868898537        4.3164909462  MEMB      2               0.0000000000
       212         2  POPC      H14S            4.8697082596        6.5122946703        3.2860434837  MEMB      2               0.0000000000
       213         2  POPC      C215            5.9871224153        5.1506171420        2.2010679797  MEMB      2               0.0000000000
       214         2  POPC      H15R            6.3717130765        6.0726187154        1.6948758153  MEMB      2               0.0000000000
       215         2  POPC      H15S            5.1571867206        4.7521292171        1.5935832734  MEMB      2               0.0000000000
       216         2  POPC      C216            7.1720724895        4.1954215956        2.3399886331  MEMB      2               0.0000000000
       217         2  POPC      H16R            6.7869283056        3.3042542735        2.8879099705  MEMB      2               0.0000000000
       218         2  POPC      H16S            7.9510718470        4.6684581999        2.9791370399  MEMB      2               0.0000000000
       219         2  POPC      C217            7.9106154039        3.8390022339        1.0293473042  MEMB      2               0.0000000000
       220         2  POPC      H17R            8.7887187402        3.2180981685        1.3341600929  MEMB      2               0.0000000000
       221         2  POPC      H17S            8.2325733247        4.7165807182        0.4453810809  MEMB      2               0.0000000000
       222         2  POPC      C218            7.1483286644        2.9448375458        0.1210678214  MEMB      2               0.0000000000
       223         2  POPC      H18R            7.6774961087        2.4275420335       -0.6994360284  MEMB      2               0.0000000000
       224         2  POPC      H18S            6.1942309097        3.3717312919       -0.2483811373  MEMB      2               0.0000000000
       225         2  POPC      H18T            6.9915015434        2.1753540488        0.8821897454  MEMB      2               0.0000000000
       226         2  POPC      C33             0.5005169649        3.2899420394       10.2000816813  MEMB      2               0.0000000000
       227         2  POPC      H3X             1.5641285625        3.4228549871       10.0865469412  MEMB      2               0.0000000000
       228         2  POPC      H3Y             0.0384379248        4.2513382805       10.5694407102  MEMB      2               0.0000000000
       229         2  POPC      C34             0.1472504915        3.2089659792        8.7238648584  MEMB      2               0.0000000000
       230         2  POPC      H4X             0.6262181353        3.9331632312        8.0733673213  MEMB      2               0.0000000000
       231         2  POPC      H4Y            -0.8109674396        3.7278995816        8.8070705012  MEMB      2               0.0000000000
       232         2  POPC      C35             0.2496737522        1.9473539732        7.8600145902  MEMB      2               0.0000000000
       233         2  POPC      H5X            -0.2101439880        2.1653922111        6.8612440595  MEMB      2               0.0000000000
       234         2  POPC      H5Y            -0.0730886873        0.9282848900        8.1455548567  MEMB      2               0.0000000000
       235         2  POPC      C36             1.6016430705        1.7210700765        7.5130105641  MEMB      2               0.0000000000
       236         2  POPC      H6X             2.1320053206        1.5275067055        8.4654551344  MEMB      2               0.0000000000
       237         2  POPC      H6Y             1.8109329078        2.6949667944        7.0575814205  MEMB      2               0.0000000000
       238         2  POPC      C37             1.5971353723        0.6562048586        6.4632299996  MEMB      2               0.0000000000
       239         2  POPC      H7X             0.9133552696        0.9409901158        5.6261776542  MEMB      2               0.0000000000
       240         2  POPC      H7Y             1.2085874285       -0.2809763720        6.8833815513  MEMB      2               0.0000000000
       241         2  POPC      C38             3.0364530706        0.5794020107        6.0695917292  MEMB      2               0.0000000000
       242         2  POPC      H8X             3.5457633152       -0.0994833914        6.7838609252  MEMB      2               0.0000000000
       243         2  POPC      H8Y             3.4566759299        1.6093853787        6.1509936272  MEMB      2               0.0000000000
       244         2  POPC      C39             3.2455871738        0.1187957187        4.6704734325  MEMB      2               0.0000000000
       245         2  POPC      H9X             2.6501153317       -0.8185629006        4.5499578148  MEMB      2               0.0000000000
       246         2  POPC      H9Y             4.3109133595       -0.1341102997        4.5181159378  MEMB      2               0.0000000000
       247         2  POPC      C310            2.9013379719        1.1902341666        3.6464568176  MEMB      2               0.0000000000
       248         2  POPC      H10X            3.7053048899        1.9323084334        3.4877549952  MEMB      2               0.0000000000
       249         2  POPC      H10Y            1.9675994131        1.7484072335        3.9323374640  MEMB      2               0.0000000000
       250         2  POPC      C311            2.6254186804        0.4332366456        2.3770746478  MEMB      2               0.0000000000
       251         2  POPC      H11X            2.0423783975        1.0623534674        1.6745100124  MEMB      2               0.0000000000
       252         2  POPC      H11Y            1.9995916457       -0.3192249961        2.8559345268  MEMB      2               0.0000000000
       253         2  POPC      C312            3.5267777246       -0.6837490450        1.8015098000  MEMB      2               0.0000000000
       254         2  POPC      H12X            3.6512279446       -1.5300882294        2.4999902481  MEMB      2               0.0000000000
       255         2  POPC      H12Y            4.5341988735       -0.2820052212        1.9541410303  MEMB      2               0.0000000000
       256         2  POPC      C313            3.1069875607       -1.2958738564        0.3845555703  MEMB      2               0.0000000000
       257         2  POPC      H13X            2.2177795541       -1.8128547895        0.5440642901  MEMB      2               0.0000000000
       258         2  POPC      H13Y            3.8283016956       -2.0620194195        0.0915287019  MEMB      2               0.0000000000
       259         2  POPC      C314            2.6368683927       -0.4536061786       -0.8433422062  MEMB      2               0.0000000000
       260         2  POPC      H14X            3.5969297800       -0.1941236401       -1.2752150000  MEMB      2               0.0000000000
       261         2  POPC      H14Y            1.9570864900        0.3677446708       -0.5980377790  MEMB      2               0.0000000000
       262         2  POPC      C315            2.2759625402       -0.7217288847       -2.2792824362  MEMB      2               0.0000000000
       263         2  POPC      H15X            2.4796701730       -1.7571322802       -2.5549659980  MEMB      2               0.0000000000
       264         2  POPC      H15Y            2.6697563453       -0.0174938116       -3.0668786189  MEMB      2               0.0000000000
       265         2  POPC      C316            0.9637868140       -0.6119880416       -2.3787600856  MEMB      2               0.0000000000
       266         2  POPC      H16X            0.4723173734        0.3591478452       -2.2198623360  MEMB      2               0.0000000000
       267         2  POPC      H16Y            0.6066864418       -1.3060601712       -1.5731585307  MEMB      2               0.0000000000
       268         2  POPC      H16Z            0.7134535313       -1.0034742512       -3.3890495552  MEMB      2               0.0000000000
       269         3  POPC      N               2.5198633835       -6.6930666508       21.3013988085  MEMB      3               0.0000000000
       270         3  POPC      C12             3.2495751403       -7.6333234015       20.3448822884  MEMB      3               0.0000000000
       271         3  POPC      H12A            3.2395698202       -8.6296583431       20.7618178468  MEMB      3               0.0000000000
       272         3  POPC      H12B            4.2858728780       -7.3190093531       20.2864515601  MEMB      3               0.0000000000
       273         3  POPC      C13             3.1741289050       -6.7147341254       22.6362489785  MEMB      3               0.0000000000
       274         3  POPC      H13A            3.1295400462       -7.6628129101       23.1331554266  MEMB      3               0.0000000000
       275         3  POPC      H13B            4.2245909469       -6.4564700955       22.5506480641  MEMB      3               0.0000000000
       276         3  POPC      H13C            2.7427375181       -5.9665280225       23.2872191996  MEMB      3               0.0000000000
       277         3  POPC      C14             2.6109345218       -5.2694784948       20.8324187502  MEMB      3               0.0000000000
       278         3  POPC      H14A            3.6463034498       -4.9845304796       20.6677414260  MEMB      3               0.0000000000
       279         3  POPC      H14B            2.1315476065       -5.1407568093       19.8661190604  MEMB      3               0.0000000000
       280         3  POPC      H14C            2.1808932382       -4.5852312269       21.5512855848  MEMB      3               0.0000000000
       281         3  POPC      C15             1.0828701148       -7.0805283365       21.4179324974  MEMB      3               0.0000000000
       282         3  POPC      H15A            0.5805799616       -7.0612568883       20.4553834335  MEMB      3               0.0000000000
       283         3  POPC      H15B            0.5538930251       -6.4058129192       22.0786356155  MEMB      3               0.0000000000
       284         3  POPC      H15C            0.9865697783       -8.0818246575       21.8034315464  MEMB      3               0.0000000000
       285         3  POPC      C11             2.8268098604       -7.6882334097       18.8685105700  MEMB      3               0.0000000000
       286         3  POPC      H11A            1.7340853496       -7.8072560756       18.7122988849  MEMB      3               0.0000000000
       287         3  POPC      H11B            3.3328263601       -8.5697547662       18.3952954249  MEMB      3               0.0000000000
       288         3  POPC      P               3.1947641619       -6.2770519108       16.7344561465  MEMB      3               0.0000000000
       289         3  POPC      O13             3.3198954102       -7.5924824792       16.0750263395  MEMB      3               0.0000000000
       290         3  POPC      O14             4.2123665676       -5.2659952849       16.3986720877  MEMB      3               0.0000000000
       291         3  POPC      O12             3.2831035286       -6.4789585837       18.2960708339  MEMB      3               0.0000000000
       292         3  POPC      O11             1.6872085302       -5.7730055535       16.5556512553  MEMB      3               0.0000000000
       293         3  POPC      C1              1.0803602200       -4.7950200655       17.4086915228  MEMB      3               0.0000000000
       294         3  POPC      HA              1.7958718707       -4.4155179498       18.1710239858  MEMB      3               0.0000000000
       295         3  POPC      HB              0.2190829757       -5.2587999553       17.9285683501  MEMB      3               0.0000000000
       296         3  POPC      C2              0.5376423569       -3.5250178239       16.6674544787  MEMB      3               0.0000000000
       297         3  POPC      HS             -0.0998688911       -2.9299375477       17.3637952816  MEMB      3               0.0000000000
       298         3  POPC      O21            -0.1876000733       -3.8323498176       15.4863814450  MEMB      3               0.0000000000
       299         3  POPC      C21            -1.3480635295       -4.3530326636       15.7332968561  MEMB      3               0.0000000000
       300         3  POPC      O22            -1.8675639424       -4.4444536469       16.8372755742  MEMB      3               0.0000000000
       301         3  POPC      C22            -1.7936361612       -4.8832190668       14.3787800388  MEMB      3               0.0000000000
       302         3  POPC      H2R            -2.0776021141       -4.0652478097       13.7011893022  MEMB      3               0.0000000000
       303         3  POPC      H2S            -2.7410979689       -5.4206964635       14.3653932277  MEMB      3               0.0000000000
       304         3  POPC      C3              1.7113539651       -2.6667924717       16.2208261981  MEMB      3               0.0000000000
       305         3  POPC      HX              2.2068986072       -2.3494166341       17.1391486507  MEMB      3               0.0000000000
       306         3  POPC      HY              1.3405377558       -1.7505000012       15.6853082294  MEMB      3               0.0000000000
       307         3  POPC      O31             2.6627258655       -3.5037806738       15.5326751329  MEMB      3               0.0000000000
       308         3  POPC      C31             2.9318092245       -3.1734578304       14.3049520688  MEMB      3               0.0000000000
       309         3  POPC      O32             2.4629966119       -2.2106303888       13.7766238668  MEMB      3               0.0000000000
       310         3  POPC      C32             3.8599560980       -4.0917786591       13.5196559354  MEMB      3               0.0000000000
       311         3  POPC      H2X             3.3184565536       -5.0574361286       13.5397166157  MEMB      3               0.0000000000
       312         3  POPC      H2Y             4.8052562285       -4.1251413838       14.0960394561  MEMB      3               0.0000000000
       313         3  POPC      C23            -0.6725234353       -5.8429739236       13.9058423561  MEMB      3               0.0000000000
       314         3  POPC      H3R            -0.3367910141       -6.5171139018       14.7419532373  MEMB      3               0.0000000000
       315         3  POPC      H3S             0.1571327151       -5.3101934285       13.4180932057  MEMB      3               0.0000000000
       316         3  POPC      C24            -1.2685244629       -6.7591257591       12.9256300635  MEMB      3               0.0000000000
       317         3  POPC      H4R            -1.7534420144       -6.2134611835       12.0852064433  MEMB      3               0.0000000000
       318         3  POPC      H4S            -2.0628080817       -7.0625521956       13.6092595856  MEMB      3               0.0000000000
       319         3  POPC      C25            -0.6390959741       -8.0887264934       12.4876750505  MEMB      3               0.0000000000
       320         3  POPC      H5R            -1.3047737375       -8.7472354193       11.8816172056  MEMB      3               0.0000000000
       321         3  POPC      H5S            -0.3576596336       -8.7511070947       13.3302850688  MEMB      3               0.0000000000
       322         3  POPC      C26             0.4265967583       -7.7129915306       11.5233997355  MEMB      3               0.0000000000
       323         3  POPC      H6R             1.1537059996       -7.1323408200       12.1297422158  MEMB      3               0.0000000000
       324         3  POPC      H6S            -0.0025074026       -7.0436887545       10.7386082447  MEMB      3               0.0000000000
       325         3  POPC      C27             0.9943498882       -8.9496139728       10.8706557688  MEMB      3               0.0000000000
       326         3  POPC      H7R             0.2389534101       -9.3852257756       10.1726920912  MEMB      3               0.0000000000
       327         3  POPC      H7S             1.1813363724       -9.7066139540       11.6695196743  MEMB      3               0.0000000000
       328         3  POPC      C28             2.2768425156       -8.5776108762       10.1434110756  MEMB      3               0.0000000000
       329         3  POPC      H8R             2.9220992535       -7.9912913330       10.8346436159  MEMB      3               0.0000000000
       330         3  POPC      H8S             2.0191019522       -7.9224942255        9.2815308569  MEMB      3               0.0000000000
       331         3  POPC      C29             2.9361076892       -9.8519610198        9.7282769810  MEMB      3               0.0000000000
       332         3  POPC      H91             3.1492123654      -10.5506059188       10.5513748163  MEMB      3               0.0000000000
       333         3  POPC      C210            3.2604942731      -10.1751617492        8.4720965940  MEMB      3               0.0000000000
       334         3  POPC      H101            3.6230244527      -11.1863305901        8.2629589207  MEMB      3               0.0000000000
       335         3  POPC      C211            3.0343750225       -9.3287054261        7.2546192626  MEMB      3               0.0000000000
       336         3  POPC      H11R            3.1434025647       -8.2435388014        7.4808815553  MEMB      3               0.0000000000
       337         3  POPC      H11S            2.0029436870       -9.4862092179        6.8634084222  MEMB      3               0.0000000000
       338         3  POPC      C212            4.0770971486       -9.6249647298        6.1653669751  MEMB      3               0.0000000000
       339         3  POPC      H12R            4.2491942893      -10.7203871922        6.0492822575  MEMB      3               0.0000000000
       340         3  POPC      H12S            5.0417700202       -9.1645960296        6.4760260170  MEMB      3               0.0000000000
       341         3  POPC      C213            3.5849266354       -9.0527873434        4.8310465739  MEMB      3               0.0000000000
       342         3  POPC      H13R            3.2927295108       -7.9864933689        4.9558648188  MEMB      3               0.0000000000
       343         3  POPC      H13S            2.6627781694       -9.6274578886        4.5817107666  MEMB      3               0.0000000000
       344         3  POPC      C214            4.5442605474       -9.1969892001        3.6447023297  MEMB      3               0.0000000000
       345         3  POPC      H14R            3.9267850944       -9.3087136596        2.7255964292  MEMB      3               0.0000000000
       346         3  POPC      H14S            5.1490569991      -10.1237982564        3.7561980857  MEMB      3               0.0000000000
       347         3  POPC      C215            5.4566522463       -7.9865557679        3.4132622251  MEMB      3               0.0000000000
       348         3  POPC      H15R            6.0280802478       -7.8081863307        4.3349890761  MEMB      3               0.0000000000
       349         3  POPC      H15S            4.8659685143       -7.0649342157        3.2136239899  MEMB      3               0.0000000000
       350         3  POPC      C216            6.4004311046       -8.2083542222        2.2343993711  MEMB      3               0.0000000000
       351         3  POPC      H16R            6.9187389854       -9.1900796547        2.3388448293  MEMB      3               0.0000000000
       352         3  POPC      H16S            7.1644720166       -7.4158018447        2.1653420592  MEMB      3               0.0000000000
       353         3  POPC      C217            5.6804289012       -8.0174463590        0.9123910978  MEMB      3               0.0000000000
       354         3  POPC      H17R            5.3382351899       -6.9613209942        0.8375278299  MEMB      3               0.0000000000
       355         3  POPC      H17S            4.7957553067       -8.6895135222        0.8796099683  MEMB      3               0.0000000000
       356         3  POPC      C218            6.5629878413       -8.3209185472       -0.2716469603  MEMB      3               0.0000000000
       357         3  POPC      H18R            6.9262166375       -9.3525968645       -0.1110802912  MEMB      3               0.0000000000
       358         3  POPC      H18S            7.4479010266       -7.6639158505       -0.3947968134  MEMB      3               0.0000000000
       359         3  POPC      H18T            5.9407772371       -8.2484256254       -1.1833387713  MEMB      3               0.0000000000
       360         3  POPC      C33             4.2028991066       -3.7229535865       12.0268946690  MEMB      3               0.0000000000
       361         3  POPC      H3X             5.3027394178       -3.5738129519       11.9496940718  MEMB      3               0.0000000000
       362         3  POPC      H3Y             3.7757264250       -2.8159439606       11.6044280604  MEMB      3               0.0000000000
       363         3  POPC      C34             3.6703631479       -4.7327364771       11.0061211772  MEMB      3               0.0000000000
       364         3  POPC      H4X             3.9342086748       -5.7390431878       11.3982795727  MEMB      3               0.0000000000
       365         3  POPC      H4Y             4.1755728878       -4.5888084050       10.0250335605  MEMB      3               0.0000000000
       366         3  POPC      C35             2.1378739501       -4.6560257074       10.7929248010  MEMB      3               0.0000000000
       367         3  POPC      H5X             1.6654242766       -4.8770086710       11.7771300678  MEMB      3               0.0000000000
       368         3  POPC      H5Y             1.8431750117       -5.4540235179       10.0787937901  MEMB      3               0.0000000000
       369         3  POPC      C36             1.4870053577       -3.3421833008       10.2966084471  MEMB      3               0.0000000000
       370         3  POPC      H6X             1.4178726584       -2.6302048688       11.1503051562  MEMB      3               0.0000000000
       371         3  POPC      H6Y             0.4382874475       -3.5833026341       10.0043848000  MEMB      3               0.0000000000
       372         3  POPC      C37             2.1936470653       -2.6050653495        9.1499721317  MEMB      3               0.0000000000
       373         3  POPC      H7X             3.2809713133       -2.5466893099        9.3532239687  MEMB      3               0.0000000000
       374         3  POPC      H7Y             1.7987837613       -1.5606927267        9.1196687081  MEMB      3               0.0000000000
       375         3  POPC      C38             1.9778079964       -3.2114448458        7.7665317376  MEMB      3               0.0000000000
       376         3  POPC      H8X             2.1643583512       -4.3091845493        7.7810691473  MEMB      3               0.0000000000
       377         3  POPC      H8Y             2.6795979837       -2.7400406055        7.0409683884  MEMB      3               0.0000000000
       378         3  POPC      C39             0.5748554297       -2.9494984959        7.2723127464  MEMB      3               0.0000000000
       379         3  POPC      H9X             0.3183535051       -1.8812912935        7.2051133742  MEMB      3               0.0000000000
       380         3  POPC      H9Y            -0.1719004419       -3.3727015271        7.9846325722  MEMB      3               0.0000000000
       381         3  POPC      C310            0.3159526518       -3.5955918406        5.9291739980  MEMB      3               0.0000000000
       382         3  POPC      H10X           -0.7376091181       -3.5321647957        5.9872276539  MEMB      3               0.0000000000
       383         3  POPC      H10Y            0.5041968626       -4.6774600455        5.8864482669  MEMB      3               0.0000000000
       384         3  POPC      C311            0.6593717947       -2.8497728722        4.6563886410  MEMB      3               0.0000000000
       385         3  POPC      H11X            1.7544118586       -2.9206288187        4.4801009744  MEMB      3               0.0000000000
       386         3  POPC      H11Y            0.3823532832       -1.7667280623        4.6852072925  MEMB      3               0.0000000000
       387         3  POPC      C312           -0.0098761668       -3.4776889786        3.4318151392  MEMB      3               0.0000000000
       388         3  POPC      H12X            0.4769830841       -2.7969455515        2.7336031511  MEMB      3               0.0000000000
       389         3  POPC      H12Y           -1.1140696274       -3.3908565867        3.3303868918  MEMB      3               0.0000000000
       390         3  POPC      C313            0.5875248151       -4.8170282290        2.9906487664  MEMB      3               0.0000000000
       391         3  POPC      H13X            0.6305901608       -5.4252062925        3.9095027901  MEMB      3               0.0000000000
       392         3  POPC      H13Y            1.6198507777       -4.5925343281        2.6357309929  MEMB      3               0.0000000000
       393         3  POPC      C314           -0.1063126600       -5.6649221714        1.8969217440  MEMB      3               0.0000000000
       394         3  POPC      H14X           -0.6377565835       -5.3048519016        1.0093452981  MEMB      3               0.0000000000
       395         3  POPC      H14Y           -0.9794170962       -5.9452519432        2.4120912976  MEMB      3               0.0000000000
       396         3  POPC      C315            0.8269700645       -6.6501505586        1.2238936233  MEMB      3               0.0000000000
       397         3  POPC      H15X            1.7777933303       -6.1736570039        0.8999327964  MEMB      3               0.0000000000
       398         3  POPC      H15Y            0.4161862185       -7.0000284458        0.2619899593  MEMB      3               0.0000000000
       399         3  POPC      C316            1.0422242753       -7.7557099153        2.2128593282  MEMB      3               0.0000000000
       400         3  POPC      H16X            1.6159065649       -7.3292604639        3.0638327170  MEMB      3               0.0000000000
       401         3  POPC      H16Y            1.5925521654       -8.5993972290        1.7611965078  MEMB      3               0.0000000000
       402         3  POPC      H16Z            0.0479641500       -8.0875677594        2.5941102439  MEMB      3               0.0000000000
       403         4  POPC      N              -3.2142019468        8.6245320312       21.0576910416  MEMB      4               0.0000000000
       404         4  POPC      C12            -3.3027196963        7.4877789953       20.0256977757  MEMB      4               0.0000000000
       405         4  POPC      H12A           -4.2479267613        7.5662699952       19.5163735663  MEMB      4               0.0000000000
       406         4  POPC      H12B           -3.2699665587        6.5318283403       20.5424752537  MEMB      4               0.0000000000
       407         4  POPC      C13            -1.7772929932        8.8103034655       21.4549471138  MEMB      4               0.0000000000
       408         4  POPC      H13A           -1.3393095324        7.8446562824       21.6361462120  MEMB      4               0.0000000000
       409         4  POPC      H13B           -1.1787353267        9.1929365429       20.6138974251  MEMB      4               0.0000000000
       410         4  POPC      H13C           -1.6544435231        9.4861317038       22.2881059024  MEMB      4               0.0000000000
       411         4  POPC      C14            -3.6523580067        9.9362066869       20.4758426711  MEMB      4               0.0000000000
       412         4  POPC      H14A           -4.6488308390        9.8944916022       20.0670708651  MEMB      4               0.0000000000
       413         4  POPC      H14B           -3.5844366668       10.7293715406       21.2044667852  MEMB      4               0.0000000000
       414         4  POPC      H14C           -2.9982276426       10.2031513689       19.6342261694  MEMB      4               0.0000000000
       415         4  POPC      C15            -4.0270692980        8.2673641707       22.2443130690  MEMB      4               0.0000000000
       416         4  POPC      H15A           -3.6982938499        8.8079853106       23.1211247127  MEMB      4               0.0000000000
       417         4  POPC      H15B           -3.9508876598        7.2025894360       22.4284852019  MEMB      4               0.0000000000
       418         4  POPC      H15C           -5.0758103260        8.4972288066       22.0925547107  MEMB      4               0.0000000000
       419         4  POPC      C11            -2.2274817839        7.3077395493       18.9162368327  MEMB      4               0.0000000000
       420         4  POPC      H11A           -2.6416728800        6.6243374712       18.1294607230  MEMB      4               0.0000000000
       421         4  POPC      H11B           -1.3357427283        6.8095581490       19.3325905047  MEMB      4               0.0000000000
       422         4  POPC      P              -2.0468824881        8.9494684097       16.9145575085  MEMB      4               0.0000000000
       423         4  POPC      O13            -3.5269447094        8.8231568313       16.7922093173  MEMB      4               0.0000000000
       424         4  POPC      O14            -1.2493467702        8.2223980811       15.9115724098  MEMB      4               0.0000000000
       425         4  POPC      O12            -1.7566552926        8.5207205662       18.3916022124  MEMB      4               0.0000000000
       426         4  POPC      O11            -1.4757371246       10.3859678299       16.9976318104  MEMB      4               0.0000000000
       427         4  POPC      C1             -0.2021405840       10.9431118663       17.3837774944  MEMB      4               0.0000000000
       428         4  POPC      HA              0.6582400791       10.3131272625       17.1043528538  MEMB      4               0.0000000000
       429         4  POPC      HB             -0.1764869702       11.0911234838       18.5044035133  MEMB      4               0.0000000000
       430         4  POPC      C2              0.0195242941       12.4095593151       16.7221933306  MEMB      4               0.0000000000
       431         4  POPC      HS              0.4819345795       13.0250312945       17.5372230078  MEMB      4               0.0000000000
       432         4  POPC      O21            -1.0503134908       13.2053788367       16.1776561047  MEMB      4               0.0000000000
       433         4  POPC      C21            -2.0589109388       12.9035744031       16.7689943552  MEMB      4               0.0000000000
       434         4  POPC      O22            -2.0015041203       12.5596647332       17.9806267446  MEMB      4               0.0000000000
       435         4  POPC      C22            -3.2843409707       13.6218032183       15.8694355183  MEMB      4               0.0000000000
       436         4  POPC      H2R            -3.3423519762       14.6941429515       15.7421086501  MEMB      4               0.0000000000
       437         4  POPC      H2S            -4.2919359277       13.8869747620       16.2853250891  MEMB      4               0.0000000000
       438         4  POPC      C3              0.8583421931       12.4184195298       15.4840793971  MEMB      4               0.0000000000
       439         4  POPC      HX              1.7427427047       11.7799526952       15.6710028172  MEMB      4               0.0000000000
       440         4  POPC      HY              1.1494189536       13.4908001164       15.3455344544  MEMB      4               0.0000000000
       441         4  POPC      O31            -0.0158087548       12.0324580388       14.3761975824  MEMB      4               0.0000000000
       442         4  POPC      C31             0.2155683947       10.8818532159       13.8109418239  MEMB      4               0.0000000000
       443         4  POPC      O32             1.2589412072       10.2627960996       13.9050380245  MEMB      4               0.0000000000
       444         4  POPC      C32            -0.8982558959       10.5213349968       12.8248517659  MEMB      4               0.0000000000
       445         4  POPC      H2X            -0.8996475146       11.2788140321       12.0203128172  MEMB      4               0.0000000000
       446         4  POPC      H2Y            -1.8787384088       10.5148900814       13.3400183480  MEMB      4               0.0000000000
       447         4  POPC      C23            -3.3648534032       12.9935062031       14.6360811731  MEMB      4               0.0000000000
       448         4  POPC      H3R            -3.4369459607       11.9029872322       14.8360448711  MEMB      4               0.0000000000
       449         4  POPC      H3S            -2.4683489930       13.3909331695       14.1568947749  MEMB      4               0.0000000000
       450         4  POPC      C24            -4.6451155703       13.4095267542       14.1799942527  MEMB      4               0.0000000000
       451         4  POPC      H4R            -4.9204183459       14.4938609648       14.3365332674  MEMB      4               0.0000000000
       452         4  POPC      H4S            -5.2369089564       12.8369119849       14.9005109751  MEMB      4               0.0000000000
       453         4  POPC      C25            -5.0741558197       12.6263359918       13.0097898629  MEMB      4               0.0000000000
       454         4  POPC      H5R            -4.2841925835       13.0514520945       12.3804519472  MEMB      4               0.0000000000
       455         4  POPC      H5S            -6.0809372077       12.8579519344       12.6063268732  MEMB      4               0.0000000000
       456         4  POPC      C26            -5.0258590987       11.0950071091       13.1754556919  MEMB      4               0.0000000000
       457         4  POPC      H6R            -5.6596799689       10.7007039357       14.0082768777  MEMB      4               0.0000000000
       458         4  POPC      H6S            -3.9974239079       10.7441083351       13.4009255237  MEMB      4               0.0000000000
       459         4  POPC      C27            -5.4567917452       10.4704238648       11.8596111910  MEMB      4               0.0000000000
       460         4  POPC      H7R            -6.5272647066       10.7108369628       11.6793237102  MEMB      4               0.0000000000
       461         4  POPC      H7S            -5.3428581850        9.3689032139       11.9700516210  MEMB      4               0.0000000000
       462         4  POPC      C28            -4.5749416287       10.9448287647       10.6841009392  MEMB      4               0.0000000000
       463         4  POPC      H8R            -4.7604793575       10.2393027712        9.8560105506  MEMB      4               0.0000000000
       464         4  POPC      H8S            -3.5283097621       10.7917454973       11.0439743284  MEMB      4               0.0000000000
       465         4  POPC      C29            -4.8057145965       12.3658386914       10.1980422641  MEMB      4               0.0000000000
       466         4  POPC      H91            -5.8382805017       12.7345207228       10.3051375674  MEMB      4               0.0000000000
       467         4  POPC      C210           -3.8397982869       13.2513472531        9.8855115158  MEMB      4               0.0000000000
       468         4  POPC      H101           -4.0817606341       14.3039896733        9.6973435277  MEMB      4               0.0000000000
       469         4  POPC      C211           -2.3712927079       12.9948935781        9.9376079271  MEMB      4               0.0000000000
       470         4  POPC      H11R           -2.0927749231       12.2935203162       10.7444769470  MEMB      4               0.0000000000
       471         4  POPC      H11S           -1.7950230947       13.9335632881       10.1078127404  MEMB      4               0.0000000000
       472         4  POPC      C212           -2.0162894942       12.3508443147        8.6015552341  MEMB      4               0.0000000000
       473         4  POPC      H12R           -2.3894019103       12.9625794970        7.7470810663  MEMB      4               0.0000000000
       474         4  POPC      H12S           -2.4568953927       11.3334914473        8.5120675078  MEMB      4               0.0000000000
       475         4  POPC      C213           -0.5268339121       12.2860586823        8.4454229137  MEMB      4               0.0000000000
       476         4  POPC      H13R           -0.0464031268       11.5575414907        9.1434525539  MEMB      4               0.0000000000
       477         4  POPC      H13S           -0.1614629154       13.2947277743        8.7676260783  MEMB      4               0.0000000000
       478         4  POPC      C214           -0.1011287743       11.9163326466        7.0084483380  MEMB      4               0.0000000000
       479         4  POPC      H14R           -0.4578909656       10.9109705318        6.7425146223  MEMB      4               0.0000000000
       480         4  POPC      H14S            0.9679600975       11.7094584341        7.0661604478  MEMB      4               0.0000000000
       481         4  POPC      C215           -0.4352631101       12.9311898849        5.8844847126  MEMB      4               0.0000000000
       482         4  POPC      H15R           -0.1982597160       13.9731121418        6.2077052180  MEMB      4               0.0000000000
       483         4  POPC      H15S           -1.5385427517       12.8902545114        5.7364683003  MEMB      4               0.0000000000
       484         4  POPC      C216            0.2342828854       12.6207188827        4.5140937193  MEMB      4               0.0000000000
       485         4  POPC      H16R           -0.0396699262       11.5947996157        4.2018805278  MEMB      4               0.0000000000
       486         4  POPC      H16S            1.3282051346       12.5568217584        4.4411473825  MEMB      4               0.0000000000
       487         4  POPC      C217            0.0083600307       13.7056873651        3.4784416890  MEMB      4               0.0000000000
       488         4  POPC      H17R            0.8193211354       13.6646304669        2.7093458798  MEMB      4               0.0000000000
       489         4  POPC      H17S            0.0475155587       14.7222409824        3.9384687352  MEMB      4               0.0000000000
       490         4  POPC      C218           -1.3232919520       13.4618783178        2.8463076689  MEMB      4               0.0000000000
       491         4  POPC      H18R           -2.1154393306       13.4939259549        3.6121657564  MEMB      4               0.0000000000
       492         4  POPC      H18S           -1.4389160819       12.4274880720        2.4927964284  MEMB      4               0.0000000000
       493         4  POPC      H18T           -1.4817494962       14.1710635911        2.0017418441  MEMB      4               0.0000000000
       494         4  POPC      C33            -0.6222825160        9.1521835328       12.1681330261  MEMB      4               0.0000000000
       495         4  POPC      H3X            -0.5559169362        8.3614735086       12.9525118997  MEMB      4               0.0000000000
       496         4  POPC      H3Y             0.3609621402        9.2168989511       11.6445926624  MEMB      4               0.0000000000
       497         4  POPC      C34            -1.6822867676        8.7724089767       11.1346023447  MEMB      4               0.0000000000
       498         4  POPC      H4X            -1.7645569898        9.5954538276       10.3880588847  MEMB      4               0.0000000000
       499         4  POPC      H4Y            -2.6816565634        8.6642286370       11.6148853948  MEMB      4               0.0000000000
       500         4  POPC      C35            -1.3066182204        7.5138695191       10.3512872021  MEMB      4               0.0000000000
       501         4  POPC      H5X            -1.4370122476        6.6060733679       10.9835522059  MEMB      4               0.0000000000
       502         4  POPC      H5Y            -0.2275219608        7.5848753176       10.0790796890  MEMB      4               0.0000000000
       503         4  POPC      C36            -2.1372735948        7.4411027307        9.0653461477  MEMB      4               0.0000000000
       504         4  POPC      H6X            -1.7085240726        8.1595960535        8.3308957594  MEMB      4               0.0000000000
       505         4  POPC      H6Y            -3.1872699782        7.7253845156        9.2892911489  MEMB      4               0.0000000000
       506         4  POPC      C37            -2.1878263577        6.0654186190        8.4418427027  MEMB      4               0.0000000000
       507         4  POPC      H7X            -2.9973085360        5.9523817649        7.6907665226  MEMB      4               0.0000000000
       508         4  POPC      H7Y            -2.3586906642        5.3191674693        9.2520470711  MEMB      4               0.0000000000
       509         4  POPC      C38            -0.8980219813        5.7723165851        7.7312233163  MEMB      4               0.0000000000
       510         4  POPC      H8X            -1.0253510762        4.7920711091        7.2211355436  MEMB      4               0.0000000000
       511         4  POPC      H8Y            -0.0940816665        5.7380330076        8.5064080280  MEMB      4               0.0000000000
       512         4  POPC      C39            -0.4660631173        6.5646452733        6.5339251094  MEMB      4               0.0000000000
       513         4  POPC      H9X             0.3681702735        5.9599665983        6.1384522219  MEMB      4               0.0000000000
       514         4  POPC      H9Y            -0.0566103246        7.5544160372        6.8040492379  MEMB      4               0.0000000000
       515         4  POPC      C310           -1.3516070632        6.4024404955        5.3308236276  MEMB      4               0.0000000000
       516         4  POPC      H10X           -2.2846663846        6.9617327366        5.5140479156  MEMB      4               0.0000000000
       517         4  POPC      H10Y           -1.5816007686        5.3108360100        5.2213283961  MEMB      4               0.0000000000
       518         4  POPC      C311           -0.5751386633        6.8646800619        4.0998515246  MEMB      4               0.0000000000
       519         4  POPC      H11X            0.3866279145        6.3035244191        4.0202787206  MEMB      4               0.0000000000
       520         4  POPC      H11Y           -0.3221894047        7.9394563312        4.2414236291  MEMB      4               0.0000000000
       521         4  POPC      C312           -1.3494101225        6.7006743084        2.8029727388  MEMB      4               0.0000000000
       522         4  POPC      H12X           -1.7187685263        5.6570220400        2.6899305421  MEMB      4               0.0000000000
       523         4  POPC      H12Y           -0.6499680043        6.9063909579        1.9594824086  MEMB      4               0.0000000000
       524         4  POPC      C313           -2.5023675969        7.6939909891        2.7140821779  MEMB      4               0.0000000000
       525         4  POPC      H13X           -2.1481643633        8.7215758646        2.9522493174  MEMB      4               0.0000000000
       526         4  POPC      H13Y           -3.3481016085        7.4128376094        3.3806631883  MEMB      4               0.0000000000
       527         4  POPC      C314           -3.0443518698        7.7533928279        1.3196583302  MEMB      4               0.0000000000
       528         4  POPC      H14X           -3.3721121655        6.7305884957        1.0590137228  MEMB      4               0.0000000000
       529         4  POPC      H14Y           -2.2261428256        7.8724940243        0.6107559261  MEMB      4               0.0000000000
       530         4  POPC      C315           -4.0951645323        8.8644724172        1.1801278354  MEMB      4               0.0000000000
       531         4  POPC      H15X           -5.0273479254        8.6553738393        1.7352100046  MEMB      4               0.0000000000
       532         4  POPC      H15Y           -4.4301547503        8.8673205342        0.1263036445  MEMB      4               0.0000000000
       533         4  POPC      C316           -3.6895578170       10.3053720450        1.4612563079  MEMB      4               0.0000000000
       534         4  POPC      H16X           -2.6430297284       10.5938439696        1.2768588002  MEMB      4               0.0000000000
       535         4  POPC      H16Y           -3.8637666566       10.7380325486        2.4475221484  MEMB      4               0.0000000000
       536         4  POPC      H16Z           -4.2776708606       10.8031904782        0.6760453243  MEMB      4               0.0000000000
       537         5  POPC      N              -5.3915076979      -11.1538885742       17.8819851476  MEMB      5               0.0000000000
       538         5  POPC      C12            -4.4236268352       -9.9774743402       18.0404035451  MEMB      5               0.0000000000
       539         5  POPC      H12A           -4.8269031716       -9.1104333652       17.5129507855  MEMB      5               0.0000000000
       540         5  POPC      H12B           -3.5009258852      -10.2459834148       17.5448303619  MEMB      5               0.0000000000
       541         5  POPC      C13            -4.9880650768      -12.2711445252       18.7814913616  MEMB      5               0.0000000000
       542         5  POPC      H13A           -4.8685715121      -11.8500611025       19.7779374930  MEMB      5               0.0000000000
       543         5  POPC      H13B           -5.7607617256      -13.0233948290       18.7799152593  MEMB      5               0.0000000000
       544         5  POPC      H13C           -4.0456132774      -12.7021272069       18.4645368130  MEMB      5               0.0000000000
       545         5  POPC      C14            -6.7751279256      -10.7377237228       18.2539779282  MEMB      5               0.0000000000
       546         5  POPC      H14A           -6.7511158112      -10.3214470288       19.2619072626  MEMB      5               0.0000000000
       547         5  POPC      H14B           -7.1301644806       -9.9439692688       17.5972917036  MEMB      5               0.0000000000
       548         5  POPC      H14C           -7.4534065146      -11.5733731050       18.2132772095  MEMB      5               0.0000000000
       549         5  POPC      C15            -5.4235428713      -11.6733385958       16.4795848890  MEMB      5               0.0000000000
       550         5  POPC      H15A           -4.4570584188      -12.0312834791       16.1474007695  MEMB      5               0.0000000000
       551         5  POPC      H15B           -5.7548343032      -10.9192970573       15.7675678327  MEMB      5               0.0000000000
       552         5  POPC      H15C           -6.1260658607      -12.4942134113       16.4131006986  MEMB      5               0.0000000000
       553         5  POPC      C11            -3.9902123929       -9.4742648656       19.4561971085  MEMB      5               0.0000000000
       554         5  POPC      H11A           -3.1616717013       -8.7340036358       19.3371917693  MEMB      5               0.0000000000
       555         5  POPC      H11B           -3.5466535502      -10.3076478533       20.0376526908  MEMB      5               0.0000000000
       556         5  POPC      P              -5.3945991119       -7.3757035033       20.1190359899  MEMB      5               0.0000000000
       557         5  POPC      O13            -4.2010873848       -6.5361370565       20.3622918099  MEMB      5               0.0000000000
       558         5  POPC      O14            -6.5799124758       -7.1360683468       20.9744294785  MEMB      5               0.0000000000
       559         5  POPC      O12            -5.0529936577       -8.9200365859       20.2163812807  MEMB      5               0.0000000000
       560         5  POPC      O11            -5.8484302578       -7.3410308849       18.5777946028  MEMB      5               0.0000000000
       561         5  POPC      C1             -6.8514875054       -6.4187507416       18.1224417263  MEMB      5               0.0000000000
       562         5  POPC      HA             -6.5057810327       -5.3807829503       18.2807946606  MEMB      5               0.0000000000
       563         5  POPC      HB             -7.8028177206       -6.5719866799       18.6808076661  MEMB      5               0.0000000000
       564         5  POPC      C2             -7.2272415659       -6.5300886161       16.6073429438  MEMB      5               0.0000000000
       565         5  POPC      HS             -7.9356186396       -5.7004406526       16.3556115593  MEMB      5               0.0000000000
       566         5  POPC      O21            -7.7720529440       -7.8056560072       16.3702679981  MEMB      5               0.0000000000
       567         5  POPC      C21            -9.0056558967       -7.8860063030       16.0511730593  MEMB      5               0.0000000000
       568         5  POPC      O22            -9.8236082224       -7.0030057099       15.9257038768  MEMB      5               0.0000000000
       569         5  POPC      C22            -9.2276875703       -9.3386103839       15.8787176687  MEMB      5               0.0000000000
       570         5  POPC      H2R           -10.2930442593       -9.4455822761       15.5927061140  MEMB      5               0.0000000000
       571         5  POPC      H2S            -9.1536184239       -9.7829699222       16.8964832491  MEMB      5               0.0000000000
       572         5  POPC      C3             -6.0501493193       -6.3868138481       15.6452254843  MEMB      5               0.0000000000
       573         5  POPC      HX             -5.6142552916       -5.4074368565       15.9822089077  MEMB      5               0.0000000000
       574         5  POPC      HY             -6.3603737795       -6.2446852382       14.5901937529  MEMB      5               0.0000000000
       575         5  POPC      O31            -5.2215881371       -7.5851616462       15.6576122232  MEMB      5               0.0000000000
       576         5  POPC      C31            -3.9699320397       -7.2532003457       15.7796369390  MEMB      5               0.0000000000
       577         5  POPC      O32            -3.6050379349       -6.1603216784       16.1486997109  MEMB      5               0.0000000000
       578         5  POPC      C32            -3.0799121379       -8.3908344528       15.2672702447  MEMB      5               0.0000000000
       579         5  POPC      H2X            -3.1793224126       -9.1704701197       16.0348263242  MEMB      5               0.0000000000
       580         5  POPC      H2Y            -2.0151518333       -8.0814171296       15.3417488817  MEMB      5               0.0000000000
       581         5  POPC      C23            -8.1524812206       -9.8972823624       14.8560236052  MEMB      5               0.0000000000
       582         5  POPC      H3R            -7.1331064415       -9.6992711893       15.2292621317  MEMB      5               0.0000000000
       583         5  POPC      H3S            -8.3759932110       -9.3752338799       13.9004403859  MEMB      5               0.0000000000
       584         5  POPC      C24            -8.1070434266      -11.4064615558       14.5861160766  MEMB      5               0.0000000000
       585         5  POPC      H4R            -9.1211295479      -11.5037815982       14.2115561715  MEMB      5               0.0000000000
       586         5  POPC      H4S            -7.8999867225      -11.9689142383       15.5047130183  MEMB      5               0.0000000000
       587         5  POPC      C25            -7.4918867401      -12.2394849951       13.5022664383  MEMB      5               0.0000000000
       588         5  POPC      H5R            -8.1048062393      -13.1946778664       13.4592614569  MEMB      5               0.0000000000
       589         5  POPC      H5S            -6.4722883395      -12.4237146567       13.8583936251  MEMB      5               0.0000000000
       590         5  POPC      C26            -7.5449759671      -11.5232308314       12.2049381023  MEMB      5               0.0000000000
       591         5  POPC      H6R            -6.8940468260      -11.9278296372       11.4163958498  MEMB      5               0.0000000000
       592         5  POPC      H6S            -7.3527320573      -10.4399860093       12.3995759580  MEMB      5               0.0000000000
       593         5  POPC      C27            -8.8947501408      -11.5951437159       11.6254123949  MEMB      5               0.0000000000
       594         5  POPC      H7R            -9.5722220170      -11.3137344149       12.4258502753  MEMB      5               0.0000000000
       595         5  POPC      H7S            -9.2781403092      -12.5896691539       11.3034621531  MEMB      5               0.0000000000
       596         5  POPC      C28            -8.9777374378      -10.5384577348       10.5672559108  MEMB      5               0.0000000000
       597         5  POPC      H8R            -9.9000769131      -10.9472143703       10.1519061338  MEMB      5               0.0000000000
       598         5  POPC      H8S            -8.2598795157      -10.5977329122        9.7328466116  MEMB      5               0.0000000000
       599         5  POPC      C29            -9.1908785566       -9.1472435414       11.1205698642  MEMB      5               0.0000000000
       600         5  POPC      H91            -9.8831910125       -9.0636318745       11.9519471017  MEMB      5               0.0000000000
       601         5  POPC      C210           -8.6148608221       -8.0146918271       10.7814140275  MEMB      5               0.0000000000
       602         5  POPC      H101           -9.0670224537       -7.0995866783       11.1311477579  MEMB      5               0.0000000000
       603         5  POPC      C211           -7.5823311259       -7.8263355353        9.7589254493  MEMB      5               0.0000000000
       604         5  POPC      H11R           -7.1859465842       -8.8054686364        9.4189623130  MEMB      5               0.0000000000
       605         5  POPC      H11S           -6.7842933712       -7.2870554518       10.3046754186  MEMB      5               0.0000000000
       606         5  POPC      C212           -8.0101036941       -6.9810593635        8.5702323495  MEMB      5               0.0000000000
       607         5  POPC      H12R           -8.4399201388       -6.0047167801        8.8864712481  MEMB      5               0.0000000000
       608         5  POPC      H12S           -8.7725977812       -7.5095599413        7.9517862973  MEMB      5               0.0000000000
       609         5  POPC      C213           -6.7618940933       -6.7193805609        7.7553920292  MEMB      5               0.0000000000
       610         5  POPC      H13R           -6.3809786403       -7.6979727329        7.3875511194  MEMB      5               0.0000000000
       611         5  POPC      H13S           -5.9587787421       -6.2750423882        8.3944961357  MEMB      5               0.0000000000
       612         5  POPC      C214           -7.0383981718       -5.8356713368        6.5616953180  MEMB      5               0.0000000000
       613         5  POPC      H14R           -7.0661131611       -4.7734222670        6.9231287898  MEMB      5               0.0000000000
       614         5  POPC      H14S           -8.0038200572       -6.0773150582        6.0808791119  MEMB      5               0.0000000000
       615         5  POPC      C215           -5.9193997239       -6.0096143611        5.5583417574  MEMB      5               0.0000000000
       616         5  POPC      H15R           -4.9729103512       -6.0169969263        6.1480511203  MEMB      5               0.0000000000
       617         5  POPC      H15S           -6.0188802938       -5.2376450187        4.7867768921  MEMB      5               0.0000000000
       618         5  POPC      C216           -5.8041142414       -7.1661416568        4.6044618821  MEMB      5               0.0000000000
       619         5  POPC      H16R           -5.9454533129       -8.0656419846        5.2304315354  MEMB      5               0.0000000000
       620         5  POPC      H16S           -4.7471723549       -7.1219672347        4.2416352070  MEMB      5               0.0000000000
       621         5  POPC      C217           -6.7757846341       -7.0297345243        3.4130324008  MEMB      5               0.0000000000
       622         5  POPC      H17R           -7.6663216435       -6.4413097380        3.7263084198  MEMB      5               0.0000000000
       623         5  POPC      H17S           -7.0765803979       -8.0662173869        3.1685246791  MEMB      5               0.0000000000
       624         5  POPC      C218           -6.2837186285       -6.4093444598        2.1001175863  MEMB      5               0.0000000000
       625         5  POPC      H18R           -6.0282006535       -5.3518242077        2.1940247430  MEMB      5               0.0000000000
       626         5  POPC      H18S           -7.0162436529       -6.4585415107        1.2807401680  MEMB      5               0.0000000000
       627         5  POPC      H18T           -5.4289818633       -6.9479823362        1.7020425599  MEMB      5               0.0000000000
       628         5  POPC      C33            -3.5126006503       -9.0139294159       13.8694120099  MEMB      5               0.0000000000
       629         5  POPC      H3X            -4.4827840515       -9.5037124498       14.0582212741  MEMB      5               0.0000000000
       630         5  POPC      H3Y            -2.7529668637       -9.7836389000       13.5960390794  MEMB      5               0.0000000000
       631         5  POPC      C34            -3.8443713912       -8.1410901369       12.6096647058  MEMB      5               0.0000000000
       632         5  POPC      H4X            -2.9497647813       -7.8196609085       12.1687709255  MEMB      5               0.0000000000
       633         5  POPC      H4Y            -4.2292970307       -7.1266821484       12.8027529653  MEMB      5               0.0000000000
       634         5  POPC      C35            -3.8446127654       -8.7526320895       11.1941464484  MEMB      5               0.0000000000
       635         5  POPC      H5X            -4.8154032629       -9.2440527834       11.0808009542  MEMB      5               0.0000000000
       636         5  POPC      H5Y            -3.0310373213       -9.5210514075       11.0932062152  MEMB      5               0.0000000000
       637         5  POPC      C36            -3.5321021334       -7.6846754529       10.0969893224  MEMB      5               0.0000000000
       638         5  POPC      H6X            -2.4637277692       -7.3512733876       10.0764268377  MEMB      5               0.0000000000
       639         5  POPC      H6Y            -4.1301526214       -6.7674873474       10.3013783470  MEMB      5               0.0000000000
       640         5  POPC      C37            -3.8660327371       -8.2136713213        8.7102716699  MEMB      5               0.0000000000
       641         5  POPC      H7X            -3.5985341284       -7.4495274990        7.9484245781  MEMB      5               0.0000000000
       642         5  POPC      H7Y            -4.9638579597       -8.3660761986        8.7123088173  MEMB      5               0.0000000000
       643         5  POPC      C38            -3.2008597666       -9.5531394662        8.3724222344  MEMB      5               0.0000000000
       644         5  POPC      H8X            -3.5766583721      -10.3324385089        9.0761737815  MEMB      5               0.0000000000
       645         5  POPC      H8Y            -2.1006201769       -9.4714416854        8.5029266420  MEMB      5               0.0000000000
       646         5  POPC      C39            -3.5255500541      -10.0416583112        6.9576563210  MEMB      5               0.0000000000
       647         5  POPC      H9X            -4.6346134605      -10.0703303095        6.8458212898  MEMB      5               0.0000000000
       648         5  POPC      H9Y            -3.1548522757      -11.0869360226        6.8638817405  MEMB      5               0.0000000000
       649         5  POPC      C310           -2.9025776132       -9.2121804179        5.8252917909  MEMB      5               0.0000000000
       650         5  POPC      H10X           -1.7944956809       -9.3139973373        5.8225275087  MEMB      5               0.0000000000
       651         5  POPC      H10Y           -3.1549944677       -8.1328871186        5.9245539677  MEMB      5               0.0000000000
       652         5  POPC      C311           -3.4137562340       -9.6671395921        4.4648571031  MEMB      5               0.0000000000
       653         5  POPC      H11X           -3.2895278295       -8.8309634221        3.7559114756  MEMB      5               0.0000000000
       654         5  POPC      H11Y           -4.5017554355       -9.8926634032        4.5339380125  MEMB      5               0.0000000000
       655         5  POPC      C312           -2.5957163615      -10.8188003124        3.8939634665  MEMB      5               0.0000000000
       656         5  POPC      H12X           -2.3461649743      -11.5556043726        4.6855686813  MEMB      5               0.0000000000
       657         5  POPC      H12Y           -1.6402314925      -10.3970892934        3.4961116497  MEMB      5               0.0000000000
       658         5  POPC      C313           -3.3450122391      -11.5563305135        2.7943964664  MEMB      5               0.0000000000
       659         5  POPC      H13X           -4.2282149889      -12.0810529647        3.2115706046  MEMB      5               0.0000000000
       660         5  POPC      H13Y           -2.6354865773      -12.3270621007        2.4078125480  MEMB      5               0.0000000000
       661         5  POPC      C314           -3.8633790667      -10.5955033345        1.7118661247  MEMB      5               0.0000000000
       662         5  POPC      H14X           -2.9268308942      -10.1036405640        1.3557646930  MEMB      5               0.0000000000
       663         5  POPC      H14Y           -4.5963905115       -9.8535761604        2.0480700661  MEMB      5               0.0000000000
       664         5  POPC      C315           -4.5280567230      -11.3493787037        0.5792209258  MEMB      5               0.0000000000
       665         5  POPC      H15X           -5.1534167568      -12.2284743757        0.8486342070  MEMB      5               0.0000000000
       666         5  POPC      H15Y           -3.5149137877      -11.6483889482        0.4038718531  MEMB      5               0.0000000000
       667         5  POPC      C316           -4.8144687736      -10.7716721618       -0.7977215577  MEMB      5               0.0000000000
       668         5  POPC      H16X           -5.8002035295      -10.2793243209       -0.7687229508  MEMB      5               0.0000000000
       669         5  POPC      H16Y           -4.8179742631      -11.5654529573       -1.5899263311  MEMB      5               0.0000000000
       670         5  POPC      H16Z           -4.0125885010      -10.0592993594       -1.0454106083  MEMB      5               0.0000000000
       671         6  POPC      N              10.9837428189       -1.4758346905       19.0323732474  MEMB      6               0.0000000000
       672         6  POPC      C12             9.8879848547       -2.5040250386       18.7532564420  MEMB      6               0.0000000000
       673         6  POPC      H12A           10.0956022890       -2.9822282064       17.7915021142  MEMB      6               0.0000000000
       674         6  POPC      H12B            8.9397699790       -2.0006514140       18.6541552678  MEMB      6               0.0000000000
       675         6  POPC      C13            10.9440048581       -0.5169105421       17.9264986360  MEMB      6               0.0000000000
       676         6  POPC      H13A           10.1072193250        0.1512927841       18.0765589113  MEMB      6               0.0000000000
       677         6  POPC      H13B           11.8714190919        0.0354519368       17.9512041360  MEMB      6               0.0000000000
       678         6  POPC      H13C           10.8853460758       -0.9730935381       16.9517646314  MEMB      6               0.0000000000
       679         6  POPC      C14            10.8262382958       -0.7510635547       20.3377277052  MEMB      6               0.0000000000
       680         6  POPC      H14A            9.9199800524       -0.1613534278       20.3845341026  MEMB      6               0.0000000000
       681         6  POPC      H14B           10.7608627814       -1.4805027363       21.1467670116  MEMB      6               0.0000000000
       682         6  POPC      H14C           11.7000683741       -0.1570423055       20.5613028167  MEMB      6               0.0000000000
       683         6  POPC      C15            12.3245675147       -2.1363354938       19.0547495690  MEMB      6               0.0000000000
       684         6  POPC      H15A           12.4697648144       -2.7885221396       18.2042011244  MEMB      6               0.0000000000
       685         6  POPC      H15B           12.3720777664       -2.7816733614       19.9370843565  MEMB      6               0.0000000000
       686         6  POPC      H15C           13.1218368585       -1.4139837578       19.1405634158  MEMB      6               0.0000000000
       687         6  POPC      C11             9.6782812684       -3.6920421962       19.7046332853  MEMB      6               0.0000000000
       688         6  POPC      H11A            8.7383537328       -4.2092096865       19.3667876222  MEMB      6               0.0000000000
       689         6  POPC      H11B            9.4766331871       -3.3496881582       20.7397085983  MEMB      6               0.0000000000
       690         6  POPC      P              10.7640038723       -5.8553582700       18.7918342947  MEMB      6               0.0000000000
       691         6  POPC      O13            10.1474853796       -5.4912407541       17.5002679702  MEMB      6               0.0000000000
       692         6  POPC      O14            10.1236166439       -6.9220095929       19.6011114708  MEMB      6               0.0000000000
       693         6  POPC      O12            10.8315876049       -4.5379382692       19.6776725456  MEMB      6               0.0000000000
       694         6  POPC      O11            12.2788192862       -6.1687115266       18.5426012721  MEMB      6               0.0000000000
       695         6  POPC      C1             13.1850833978       -6.5905064394       19.5410508610  MEMB      6               0.0000000000
       696         6  POPC      HA             12.7814138572       -7.4105240386       20.1819094040  MEMB      6               0.0000000000
       697         6  POPC      HB             13.4588788733       -5.7337595623       20.1919096866  MEMB      6               0.0000000000
       698         6  POPC      C2             14.4787941317       -7.0921792872       18.8551666653  MEMB      6               0.0000000000
       699         6  POPC      HS             15.2595432361       -6.9751388619       19.6319380147  MEMB      6               0.0000000000
       700         6  POPC      O21            14.8600616756       -6.3621680847       17.6786387507  MEMB      6               0.0000000000
       701         6  POPC      C21            14.8743335541       -5.0843775233       17.7732486349  MEMB      6               0.0000000000
       702         6  POPC      O22            15.0582358307       -4.4252573334       18.7884275736  MEMB      6               0.0000000000
       703         6  POPC      C22            14.7922773603       -4.5138666193       16.3607422475  MEMB      6               0.0000000000
       704         6  POPC      H2R            13.8610737120       -4.8964983210       15.8884032966  MEMB      6               0.0000000000
       705         6  POPC      H2S            15.6592321112       -4.9044885614       15.7865915175  MEMB      6               0.0000000000
       706         6  POPC      C3             14.3873144285       -8.5650231372       18.3964245959  MEMB      6               0.0000000000
       707         6  POPC      HX             14.4066924543       -9.2647076047       19.2577821062  MEMB      6               0.0000000000
       708         6  POPC      HY             15.2543661760       -8.8531187532       17.7493857169  MEMB      6               0.0000000000
       709         6  POPC      O31            13.1823289749       -8.7027636261       17.6997451106  MEMB      6               0.0000000000
       710         6  POPC      C31            13.2340891168       -8.5978053153       16.4015820478  MEMB      6               0.0000000000
       711         6  POPC      O32            14.2277352732       -8.4732064355       15.7011612833  MEMB      6               0.0000000000
       712         6  POPC      C32            11.8142720519       -8.6386457657       15.9134927405  MEMB      6               0.0000000000
       713         6  POPC      H2X            11.1947380097       -8.3921390776       16.8001263825  MEMB      6               0.0000000000
       714         6  POPC      H2Y            11.5823440234       -9.6526969067       15.5274451230  MEMB      6               0.0000000000
       715         6  POPC      C23            14.8612529158       -2.9733213043       16.3532827737  MEMB      6               0.0000000000
       716         6  POPC      H3R            15.7318203408       -2.6568289443       16.9718524498  MEMB      6               0.0000000000
       717         6  POPC      H3S            13.9348667286       -2.5466558974       16.7900482001  MEMB      6               0.0000000000
       718         6  POPC      C24            15.0821136744       -2.3936313454       14.9505946900  MEMB      6               0.0000000000
       719         6  POPC      H4R            16.0104787544       -2.8510799697       14.5411408344  MEMB      6               0.0000000000
       720         6  POPC      H4S            15.2374252440       -1.2935714665       15.0162425705  MEMB      6               0.0000000000
       721         6  POPC      C25            13.8993580765       -2.6272084971       14.0049099485  MEMB      6               0.0000000000
       722         6  POPC      H5R            12.9967314114       -2.1233028714       14.4217036975  MEMB      6               0.0000000000
       723         6  POPC      H5S            13.6697296303       -3.7142308147       13.9451066548  MEMB      6               0.0000000000
       724         6  POPC      C26            14.0951936436       -2.0586942177       12.5954452048  MEMB      6               0.0000000000
       725         6  POPC      H6R            14.1277608200       -0.9448765809       12.6403862393  MEMB      6               0.0000000000
       726         6  POPC      H6S            13.2009653670       -2.3491207650       11.9992164473  MEMB      6               0.0000000000
       727         6  POPC      C27            15.3550042346       -2.5081988387       11.8402307331  MEMB      6               0.0000000000
       728         6  POPC      H7R            16.2627759242       -2.0997241413       12.3384434120  MEMB      6               0.0000000000
       729         6  POPC      H7S            15.2681011154       -2.0107176644       10.8437923559  MEMB      6               0.0000000000
       730         6  POPC      C28            15.4869065393       -4.0317492628       11.6425127651  MEMB      6               0.0000000000
       731         6  POPC      H8R            14.4736116674       -4.4346664115       11.4329688822  MEMB      6               0.0000000000
       732         6  POPC      H8S            15.8333043449       -4.5229907988       12.5788877495  MEMB      6               0.0000000000
       733         6  POPC      C29            16.4325101290       -4.2914798750       10.4953773396  MEMB      6               0.0000000000
       734         6  POPC      H91            17.3932834307       -3.7558769583       10.5596695962  MEMB      6               0.0000000000
       735         6  POPC      C210           16.1810054554       -5.0152128841        9.3901430763  MEMB      6               0.0000000000
       736         6  POPC      H101           16.9456171263       -5.0129555800        8.5981267958  MEMB      6               0.0000000000
       737         6  POPC      C211           14.9002476226       -5.7396608818        9.0418422949  MEMB      6               0.0000000000
       738         6  POPC      H11R           14.2220256241       -5.8515029422        9.9178776499  MEMB      6               0.0000000000
       739         6  POPC      H11S           15.1190821468       -6.7746019370        8.6941382284  MEMB      6               0.0000000000
       740         6  POPC      C212           14.1024360423       -5.0276941167        7.9376966290  MEMB      6               0.0000000000
       741         6  POPC      H12R           13.7682386635       -4.0193059543        8.2707363671  MEMB      6               0.0000000000
       742         6  POPC      H12S           13.1692183697       -5.6153590240        7.7744648074  MEMB      6               0.0000000000
       743         6  POPC      C213           14.8607598345       -4.8908259796        6.6064080146  MEMB      6               0.0000000000
       744         6  POPC      H13R           15.4750051064       -5.7966674450        6.4057655469  MEMB      6               0.0000000000
       745         6  POPC      H13S           15.5626388453       -4.0279538592        6.6636139300  MEMB      6               0.0000000000
       746         6  POPC      C214           13.8717966463       -4.6699918002        5.4608218525  MEMB      6               0.0000000000
       747         6  POPC      H14R           12.9563530631       -5.2683427179        5.6768514541  MEMB      6               0.0000000000
       748         6  POPC      H14S           14.2720328738       -5.0476935673        4.4963197165  MEMB      6               0.0000000000
       749         6  POPC      C215           13.4893510304       -3.1888639189        5.3260695582  MEMB      6               0.0000000000
       750         6  POPC      H15R           14.3392044691       -2.5885005838        4.9352451312  MEMB      6               0.0000000000
       751         6  POPC      H15S           13.2579133158       -2.8029694944        6.3450129505  MEMB      6               0.0000000000
       752         6  POPC      C216           12.2924746887       -3.0036692864        4.3876813110  MEMB      6               0.0000000000
       753         6  POPC      H16R           11.8748427611       -1.9789359740        4.4881123867  MEMB      6               0.0000000000
       754         6  POPC      H16S           11.5028371234       -3.7196177030        4.7164643028  MEMB      6               0.0000000000
       755         6  POPC      C217           12.6526272094       -3.2846190425        2.9161823812  MEMB      6               0.0000000000
       756         6  POPC      H17R           11.8384200682       -3.9136292351        2.4980727669  MEMB      6               0.0000000000
       757         6  POPC      H17S           13.5749530057       -3.9032301946        2.8594578341  MEMB      6               0.0000000000
       758         6  POPC      C218           12.8278781196       -2.0466007347        2.0269176204  MEMB      6               0.0000000000
       759         6  POPC      H18R           13.4026319015       -1.2473450579        2.5418085983  MEMB      6               0.0000000000
       760         6  POPC      H18S           11.8378982876       -1.6351039489        1.7374759991  MEMB      6               0.0000000000
       761         6  POPC      H18T           13.3714596924       -2.3099840235        1.0936237815  MEMB      6               0.0000000000
       762         6  POPC      C33            11.3626064966       -7.4804429280       15.0506184471  MEMB      6               0.0000000000
       763         6  POPC      H3X            11.6313192008       -6.5125176903       15.5036960041  MEMB      6               0.0000000000
       764         6  POPC      H3Y            10.2402455083       -7.5680887001       15.0315200524  MEMB      6               0.0000000000
       765         6  POPC      C34            11.7870780945       -7.6579120684       13.6355229610  MEMB      6               0.0000000000
       766         6  POPC      H4X            11.2889635374       -8.6250636707       13.5367240359  MEMB      6               0.0000000000
       767         6  POPC      H4Y            12.8807114544       -7.7823890877       13.4682770387  MEMB      6               0.0000000000
       768         6  POPC      C35            11.0796163171       -6.6671563728       12.7310576823  MEMB      6               0.0000000000
       769         6  POPC      H5X            11.6755501178       -5.7347025560       12.7690825254  MEMB      6               0.0000000000
       770         6  POPC      H5Y            10.0555083089       -6.5143440486       13.1420649420  MEMB      6               0.0000000000
       771         6  POPC      C36            10.9065051595       -7.1116869044       11.2993321144  MEMB      6               0.0000000000
       772         6  POPC      H6X            10.3303419144       -8.0751462370       11.2708982729  MEMB      6               0.0000000000
       773         6  POPC      H6Y            11.9434160010       -7.2489112604       10.9060696585  MEMB      6               0.0000000000
       774         6  POPC      C37            10.1830716224       -6.1198240574       10.3878516365  MEMB      6               0.0000000000
       775         6  POPC      H7X            10.9292879603       -5.3856129555       10.0120941079  MEMB      6               0.0000000000
       776         6  POPC      H7Y             9.4140220548       -5.6023544830       10.9974445209  MEMB      6               0.0000000000
       777         6  POPC      C38             9.4747946899       -6.7710821435        9.1907381171  MEMB      6               0.0000000000
       778         6  POPC      H8X             8.7930767334       -7.5699682851        9.5656628636  MEMB      6               0.0000000000
       779         6  POPC      H8Y            10.2627650724       -7.2167255894        8.5497521663  MEMB      6               0.0000000000
       780         6  POPC      C39             8.6549954460       -5.7748005590        8.3590761082  MEMB      6               0.0000000000
       781         6  POPC      H9X             9.3441654229       -5.1693193128        7.7301450358  MEMB      6               0.0000000000
       782         6  POPC      H9Y             8.1506638755       -5.0899144160        9.0760212745  MEMB      6               0.0000000000
       783         6  POPC      C310            7.5428181229       -6.3931483933        7.4943316936  MEMB      6               0.0000000000
       784         6  POPC      H10X            6.8011504887       -5.5951658393        7.2601855111  MEMB      6               0.0000000000
       785         6  POPC      H10Y            6.9939794284       -7.1858679126        8.0486484373  MEMB      6               0.0000000000
       786         6  POPC      C311            8.0326943571       -6.9401126602        6.1545969830  MEMB      6               0.0000000000
       787         6  POPC      H11X            7.2595263518       -7.6457645375        5.7895578254  MEMB      6               0.0000000000
       788         6  POPC      H11Y            8.9663814103       -7.5214394371        6.2865891457  MEMB      6               0.0000000000
       789         6  POPC      C312            8.1779486703       -5.8307104477        5.1084048596  MEMB      6               0.0000000000
       790         6  POPC      H12X            8.7119886146       -4.9555149875        5.5361862426  MEMB      6               0.0000000000
       791         6  POPC      H12Y            7.1435797747       -5.5072383451        4.8440059101  MEMB      6               0.0000000000
       792         6  POPC      C313            8.9163954141       -6.2649426817        3.8429034947  MEMB      6               0.0000000000
       793         6  POPC      H13X            8.4402175886       -7.1829616574        3.4753541448  MEMB      6               0.0000000000
       794         6  POPC      H13Y            9.9497282786       -6.5908789612        4.0780431392  MEMB      6               0.0000000000
       795         6  POPC      C314            8.9192448610       -5.1594305115        2.7712104755  MEMB      6               0.0000000000
       796         6  POPC      H14X            9.4326835109       -4.2608278953        3.1814929952  MEMB      6               0.0000000000
       797         6  POPC      H14Y            7.8758398204       -4.8645538246        2.5168010971  MEMB      6               0.0000000000
       798         6  POPC      C315            9.6077908567       -5.6013240614        1.4795739834  MEMB      6               0.0000000000
       799         6  POPC      H15X            9.0079901221       -6.4437982333        1.0657518098  MEMB      6               0.0000000000
       800         6  POPC      H15Y           10.6135881595       -5.9983056401        1.7494225407  MEMB      6               0.0000000000
       801         6  POPC      C316            9.7848283692       -4.4943426527        0.4311223229  MEMB      6               0.0000000000
       802         6  POPC      H16X           10.4196549497       -3.6883957630        0.8547921801  MEMB      6               0.0000000000
       803         6  POPC      H16Y            8.8147688767       -4.0468700663        0.1292119387  MEMB      6               0.0000000000
       804         6  POPC      H16Z           10.2868003597       -4.8807337457       -0.4819997022  MEMB      6               0.0000000000
       805         7  POPC      N             -10.3007898562        4.4513478543       20.8899873891  MEMB      7               0.0000000000
       806         7  POPC      C12            -9.9460816334        5.7943465861       20.2344421679  MEMB      7               0.0000000000
       807         7  POPC      H12A           -9.3939606866        6.3940417084       20.9499453959  MEMB      7               0.0000000000
       808         7  POPC      H12B          -10.8559295471        6.3598911505       19.9927384971  MEMB      7               0.0000000000
       809         7  POPC      C13           -10.9218555076        3.5382701769       19.8709940195  MEMB      7               0.0000000000
       810         7  POPC      H13A          -10.7795315486        2.4953461841       20.1116465623  MEMB      7               0.0000000000
       811         7  POPC      H13B          -11.9831797036        3.7532999376       19.7828647715  MEMB      7               0.0000000000
       812         7  POPC      H13C          -10.5054282870        3.7473362598       18.8801087070  MEMB      7               0.0000000000
       813         7  POPC      C14            -9.0918355383        3.8082572303       21.4742584386  MEMB      7               0.0000000000
       814         7  POPC      H14A           -8.3811522727        3.5192366451       20.7075976219  MEMB      7               0.0000000000
       815         7  POPC      H14B           -8.5882499891        4.4621332139       22.1740065468  MEMB      7               0.0000000000
       816         7  POPC      H14C           -9.3386192567        2.8975517791       21.9799114460  MEMB      7               0.0000000000
       817         7  POPC      C15           -11.3202659683        4.6990935569       21.9594608555  MEMB      7               0.0000000000
       818         7  POPC      H15A          -10.9663120127        5.4119054950       22.6955850532  MEMB      7               0.0000000000
       819         7  POPC      H15B          -11.5778648839        3.7834353607       22.4618223720  MEMB      7               0.0000000000
       820         7  POPC      H15C          -12.2166118890        5.1188391602       21.5027179751  MEMB      7               0.0000000000
       821         7  POPC      C11            -9.1117216326        5.7926718329       18.9285291138  MEMB      7               0.0000000000
       822         7  POPC      H11A           -8.3293399789        5.0136960830       18.9777953550  MEMB      7               0.0000000000
       823         7  POPC      H11B           -8.6115474754        6.7873721735       18.8285291423  MEMB      7               0.0000000000
       824         7  POPC      P             -10.8312413233        6.6637130203       17.1948072084  MEMB      7               0.0000000000
       825         7  POPC      O13           -10.0129310188        7.8890311579       17.0577612308  MEMB      7               0.0000000000
       826         7  POPC      O14           -12.0114868109        6.7082494354       18.0734879860  MEMB      7               0.0000000000
       827         7  POPC      O12            -9.9041029000        5.5182619065       17.7906867635  MEMB      7               0.0000000000
       828         7  POPC      O11           -11.1384795098        6.0671778983       15.7608227338  MEMB      7               0.0000000000
       829         7  POPC      C1            -10.0226756967        5.8945846493       14.8730441670  MEMB      7               0.0000000000
       830         7  POPC      HA            -10.2251590976        5.0117428973       14.2301925212  MEMB      7               0.0000000000
       831         7  POPC      HB             -9.0572188136        5.6936065379       15.4000207735  MEMB      7               0.0000000000
       832         7  POPC      C2             -9.8344764220        7.1287531128       13.9560357702  MEMB      7               0.0000000000
       833         7  POPC      HS             -9.4977907669        7.9632502704       14.6146916316  MEMB      7               0.0000000000
       834         7  POPC      O21           -11.0878842561        7.4437285529       13.3421953103  MEMB      7               0.0000000000
       835         7  POPC      C21           -11.1646612714        8.6961114145       12.9729236410  MEMB      7               0.0000000000
       836         7  POPC      O22           -10.3265954557        9.5638768395       13.1487632771  MEMB      7               0.0000000000
       837         7  POPC      C22           -12.4238833791        8.8856206272       12.1833518762  MEMB      7               0.0000000000
       838         7  POPC      H2R           -12.4012645515        9.8108766275       11.5751285514  MEMB      7               0.0000000000
       839         7  POPC      H2S           -13.1482928693        9.0559318734       13.0124216157  MEMB      7               0.0000000000
       840         7  POPC      C3             -8.7846991614        6.8420798157       12.8536744965  MEMB      7               0.0000000000
       841         7  POPC      HX             -7.7791424891        6.8327630671       13.3362418194  MEMB      7               0.0000000000
       842         7  POPC      HY             -8.7927642351        7.6653411657       12.1017494370  MEMB      7               0.0000000000
       843         7  POPC      O31            -9.1328619995        5.5774775540       12.2426262570  MEMB      7               0.0000000000
       844         7  POPC      C31            -8.1904885336        4.9845852729       11.5353417031  MEMB      7               0.0000000000
       845         7  POPC      O32            -7.0942749051        5.4579084714       11.3117363284  MEMB      7               0.0000000000
       846         7  POPC      C32            -8.7555223355        3.6976605724       10.9231942543  MEMB      7               0.0000000000
       847         7  POPC      H2X            -9.8137734260        3.9027155078       10.6605642776  MEMB      7               0.0000000000
       848         7  POPC      H2Y            -8.7123578018        2.8850015996       11.6777035688  MEMB      7               0.0000000000
       849         7  POPC      C23           -12.8392770123        7.6216199891       11.3775205636  MEMB      7               0.0000000000
       850         7  POPC      H3R           -13.8571048961        7.7941852939       11.1344488703  MEMB      7               0.0000000000
       851         7  POPC      H3S           -12.9248290627        6.7029197542       11.9831527762  MEMB      7               0.0000000000
       852         7  POPC      C24           -12.4090359673        7.4275573717        9.9282830740  MEMB      7               0.0000000000
       853         7  POPC      H4R           -12.9366193543        8.1161038730        9.2462609962  MEMB      7               0.0000000000
       854         7  POPC      H4S           -12.7122107128        6.4184699981        9.5714207476  MEMB      7               0.0000000000
       855         7  POPC      C25           -10.9703869039        7.7757978690        9.7321541190  MEMB      7               0.0000000000
       856         7  POPC      H5R           -10.3834516827        7.1308798894       10.4167886111  MEMB      7               0.0000000000
       857         7  POPC      H5S           -10.8345621615        8.8486192536       10.0102835020  MEMB      7               0.0000000000
       858         7  POPC      C26           -10.5916178250        7.5984227135        8.2785385695  MEMB      7               0.0000000000
       859         7  POPC      H6R           -11.2832437967        8.1749575820        7.6203620840  MEMB      7               0.0000000000
       860         7  POPC      H6S           -10.6883210436        6.5237651688        8.0175974325  MEMB      7               0.0000000000
       861         7  POPC      C27            -9.1899892019        8.1175921307        8.0155393923  MEMB      7               0.0000000000
       862         7  POPC      H7R            -9.1887565541        9.2168306293        8.1993181762  MEMB      7               0.0000000000
       863         7  POPC      H7S            -8.9876373307        7.9400816935        6.9358138034  MEMB      7               0.0000000000
       864         7  POPC      C28            -8.1172074611        7.4686577615        8.8965426369  MEMB      7               0.0000000000
       865         7  POPC      H8R            -8.3132638963        6.3768960822        8.9856731220  MEMB      7               0.0000000000
       866         7  POPC      H8S            -8.1465510236        7.8777205971        9.9295400175  MEMB      7               0.0000000000
       867         7  POPC      C29            -6.7843873097        7.7541518077        8.2682593754  MEMB      7               0.0000000000
       868         7  POPC      H91            -6.3364288386        8.7165605734        8.5560450591  MEMB      7               0.0000000000
       869         7  POPC      C210           -6.1712912033        6.9641146631        7.3715812634  MEMB      7               0.0000000000
       870         7  POPC      H101           -5.1958034591        7.2729585660        6.9693056790  MEMB      7               0.0000000000
       871         7  POPC      C211           -6.7108759719        5.6586059856        6.8425212157  MEMB      7               0.0000000000
       872         7  POPC      H11R           -7.7946151084        5.5213985390        7.0743925093  MEMB      7               0.0000000000
       873         7  POPC      H11S           -6.1691934876        4.8109673126        7.3147800620  MEMB      7               0.0000000000
       874         7  POPC      C212           -6.5580050506        5.5320670030        5.3243703896  MEMB      7               0.0000000000
       875         7  POPC      H12R           -5.4793938070        5.4777510433        5.0483419867  MEMB      7               0.0000000000
       876         7  POPC      H12S           -6.9851140135        6.4368932447        4.8343180720  MEMB      7               0.0000000000
       877         7  POPC      C213           -7.2801653043        4.2827114957        4.8100038237  MEMB      7               0.0000000000
       878         7  POPC      H13R           -8.3748777588        4.3579692320        4.9930983399  MEMB      7               0.0000000000
       879         7  POPC      H13S           -6.8882826247        3.3669526133        5.3044302410  MEMB      7               0.0000000000
       880         7  POPC      C214           -7.0988836023        4.0788252301        3.3333888225  MEMB      7               0.0000000000
       881         7  POPC      H14R           -7.6199350938        3.1496040873        3.0126678419  MEMB      7               0.0000000000
       882         7  POPC      H14S           -6.0196070202        3.9826553363        3.1199592668  MEMB      7               0.0000000000
       883         7  POPC      C215           -7.6252379124        5.2169269937        2.5156643220  MEMB      7               0.0000000000
       884         7  POPC      H15R           -7.1040279268        6.1838571788        2.7407489163  MEMB      7               0.0000000000
       885         7  POPC      H15S           -8.7118093295        5.3901245426        2.6352015450  MEMB      7               0.0000000000
       886         7  POPC      C216           -7.3215911408        4.8869289685        1.0815130088  MEMB      7               0.0000000000
       887         7  POPC      H16R           -6.2309196249        5.0728896560        0.9870550424  MEMB      7               0.0000000000
       888         7  POPC      H16S           -7.9440895305        5.6384752793        0.6067418347  MEMB      7               0.0000000000
       889         7  POPC      C217           -7.6901852550        3.5538003707        0.4400601555  MEMB      7               0.0000000000
       890         7  POPC      H17R           -7.1650900602        2.7545263286        0.9984922982  MEMB      7               0.0000000000
       891         7  POPC      H17S           -7.3093385715        3.5853055133       -0.6146569825  MEMB      7               0.0000000000
       892         7  POPC      C218           -9.1537233546        3.1778951033        0.4373403761  MEMB      7               0.0000000000
       893         7  POPC      H18R           -9.7010948558        3.6726516976       -0.3620371736  MEMB      7               0.0000000000
       894         7  POPC      H18S           -9.6038902579        3.3827317753        1.4290314351  MEMB      7               0.0000000000
       895         7  POPC      H18T           -9.3508018170        2.1601292610        0.1317649688  MEMB      7               0.0000000000
       896         7  POPC      C33            -8.0292791704        3.2378140901        9.6393366181  MEMB      7               0.0000000000
       897         7  POPC      H3X            -6.9825714920        2.9504955779        9.8781430635  MEMB      7               0.0000000000
       898         7  POPC      H3Y            -7.9890199108        4.0832449733        8.9155482324  MEMB      7               0.0000000000
       899         7  POPC      C34            -8.7824560920        2.0722381316        8.9754288926  MEMB      7               0.0000000000
       900         7  POPC      H4X            -9.8080521057        2.4247965011        8.7208431459  MEMB      7               0.0000000000
       901         7  POPC      H4Y            -8.8746226800        1.2211262033        9.6852918261  MEMB      7               0.0000000000
       902         7  POPC      C35            -8.1288460918        1.5887062708        7.6784085204  MEMB      7               0.0000000000
       903         7  POPC      H5X            -7.0787717785        1.2826652143        7.8903613075  MEMB      7               0.0000000000
       904         7  POPC      H5Y            -8.0718214689        2.4581146448        6.9910588516  MEMB      7               0.0000000000
       905         7  POPC      C36            -8.8701701615        0.4196986245        6.9897332897  MEMB      7               0.0000000000
       906         7  POPC      H6X            -8.9187229105       -0.4443471903        7.6919645192  MEMB      7               0.0000000000
       907         7  POPC      H6Y            -8.2336325027        0.1144083902        6.1299817833  MEMB      7               0.0000000000
       908         7  POPC      C37           -10.2884363806        0.7297064619        6.4500546329  MEMB      7               0.0000000000
       909         7  POPC      H7X           -10.9869062550        0.8925597223        7.2995662876  MEMB      7               0.0000000000
       910         7  POPC      H7Y           -10.6883538224       -0.1530633389        5.8986077691  MEMB      7               0.0000000000
       911         7  POPC      C38           -10.3439954567        1.9452997226        5.5052294289  MEMB      7               0.0000000000
       912         7  POPC      H8X            -9.8149944345        1.7030758858        4.5578454444  MEMB      7               0.0000000000
       913         7  POPC      H8Y            -9.8144587597        2.8062101552        5.9583950608  MEMB      7               0.0000000000
       914         7  POPC      C39           -11.7750994421        2.3853777864        5.1694491356  MEMB      7               0.0000000000
       915         7  POPC      H9X           -12.4096717433        1.4812681846        5.0820071587  MEMB      7               0.0000000000
       916         7  POPC      H9Y           -11.7764061217        2.8725917156        4.1682691382  MEMB      7               0.0000000000
       917         7  POPC      C310          -12.3929782892        3.3089320891        6.2333948885  MEMB      7               0.0000000000
       918         7  POPC      H10X          -12.3545684598        2.8015547400        7.2204858600  MEMB      7               0.0000000000
       919         7  POPC      H10Y          -13.4652123248        3.4730929716        5.9720582352  MEMB      7               0.0000000000
       920         7  POPC      C311          -11.7297794608        4.6881299376        6.3331572472  MEMB      7               0.0000000000
       921         7  POPC      H11X          -10.6817170956        4.6293243706        6.6958156070  MEMB      7               0.0000000000
       922         7  POPC      H11Y          -12.3003662352        5.2991418966        7.0749903990  MEMB      7               0.0000000000
       923         7  POPC      C312          -11.7282579246        5.3521838530        4.9547853800  MEMB      7               0.0000000000
       924         7  POPC      H12X          -12.8000521284        5.3769599341        4.6619376218  MEMB      7               0.0000000000
       925         7  POPC      H12Y          -11.1101938302        4.7921944541        4.2304774565  MEMB      7               0.0000000000
       926         7  POPC      C313          -11.1897602023        6.7661473072        4.9283583303  MEMB      7               0.0000000000
       927         7  POPC      H13X          -10.2310539615        6.8939470742        5.4590693896  MEMB      7               0.0000000000
       928         7  POPC      H13Y          -11.8139000350        7.1446414425        5.7237357199  MEMB      7               0.0000000000
       929         7  POPC      C314          -11.0013317846        7.3937371041        3.4931376238  MEMB      7               0.0000000000
       930         7  POPC      H14X          -10.2227348743        6.7383182200        3.0680692406  MEMB      7               0.0000000000
       931         7  POPC      H14Y          -10.6902221391        8.4552956312        3.5399183460  MEMB      7               0.0000000000
       932         7  POPC      C315          -12.0015631447        7.2936447253        2.3130237406  MEMB      7               0.0000000000
       933         7  POPC      H15X          -12.6406418397        8.0029530938        2.6089243154  MEMB      7               0.0000000000
       934         7  POPC      H15Y          -12.6306234653        6.3856212919        2.3629900698  MEMB      7               0.0000000000
       935         7  POPC      C316          -12.1939534776        8.3012647895        1.1134495673  MEMB      7               0.0000000000
       936         7  POPC      H16X          -11.3167217687        8.2418406084        0.4845125604  MEMB      7               0.0000000000
       937         7  POPC      H16Y          -12.4597748887        9.3580024165        1.3412048725  MEMB      7               0.0000000000
       938         7  POPC      H16Z          -13.0728549101        7.9910304655        0.5108627977  MEMB      7               0.0000000000
       939         8  POPC      N               6.9803570972       10.0819723197       21.1258425424  MEMB      8               0.0000000000
       940         8  POPC      C12             7.5659753456        9.8322749378       19.7304751658  MEMB      8               0.0000000000
       941         8  POPC      H12A            7.4725166938        8.7771032470       19.5157460996  MEMB      8               0.0000000000
       942         8  POPC      H12B            8.6279390805       10.0826697462       19.7547259269  MEMB      8               0.0000000000
       943         8  POPC      C13             7.0855482988       11.5316378625       21.5138914815  MEMB      8               0.0000000000
       944         8  POPC      H13A            8.1104100104       11.8236518548       21.7220880841  MEMB      8               0.0000000000
       945         8  POPC      H13B            6.7106656536       12.1186685364       20.6811208700  MEMB      8               0.0000000000
       946         8  POPC      H13C            6.4846723959       11.7242633474       22.3983951501  MEMB      8               0.0000000000
       947         8  POPC      C14             5.5245771501        9.7517148507       21.2204236077  MEMB      8               0.0000000000
       948         8  POPC      H14A            5.1641412709        9.8097693556       22.2459745620  MEMB      8               0.0000000000
       949         8  POPC      H14B            4.9528324980       10.4466806187       20.6076586094  MEMB      8               0.0000000000
       950         8  POPC      H14C            5.3064061304        8.7621947002       20.8543057967  MEMB      8               0.0000000000
       951         8  POPC      C15             7.7235284700        9.2008224751       22.0769681852  MEMB      8               0.0000000000
       952         8  POPC      H15A            7.2459247417        9.2002715174       23.0479723223  MEMB      8               0.0000000000
       953         8  POPC      H15B            8.7602787349        9.4975035988       22.1931929735  MEMB      8               0.0000000000
       954         8  POPC      H15C            7.7334328340        8.1814649425       21.7175068588  MEMB      8               0.0000000000
       955         8  POPC      C11             7.0178321263       10.5265522515       18.4586823940  MEMB      8               0.0000000000
       956         8  POPC      H11A            7.5474822800       10.0333237421       17.5992704717  MEMB      8               0.0000000000
       957         8  POPC      H11B            7.3024152133       11.5986215662       18.4494574156  MEMB      8               0.0000000000
       958         8  POPC      P               4.9056895745       10.0572302053       16.9769057028  MEMB      8               0.0000000000
       959         8  POPC      O13             3.4487412790       10.1872630923       17.1617584562  MEMB      8               0.0000000000
       960         8  POPC      O14             5.4727268147        8.7981418724       16.4480412683  MEMB      8               0.0000000000
       961         8  POPC      O12             5.6079047307       10.3903143996       18.3641975770  MEMB      8               0.0000000000
       962         8  POPC      O11             5.3700567477       11.3018834693       16.0944734713  MEMB      8               0.0000000000
       963         8  POPC      C1              4.8802361847       12.5939664245       16.4864842638  MEMB      8               0.0000000000
       964         8  POPC      HA              5.3961227258       12.9155367673       17.4179894635  MEMB      8               0.0000000000
       965         8  POPC      HB              3.7784114734       12.5901236667       16.6555790746  MEMB      8               0.0000000000
       966         8  POPC      C2              5.1156332379       13.6687672113       15.4044348818  MEMB      8               0.0000000000
       967         8  POPC      HS              4.5247527999       14.5691751577       15.7113318964  MEMB      8               0.0000000000
       968         8  POPC      O21             4.6986093067       13.1817449885       14.1150057291  MEMB      8               0.0000000000
       969         8  POPC      C21             3.9016008575       13.9608399137       13.3933889370  MEMB      8               0.0000000000
       970         8  POPC      O22             3.5765595877       15.0974857663       13.6738913584  MEMB      8               0.0000000000
       971         8  POPC      C22             3.3533517209       13.1893250184       12.2204953556  MEMB      8               0.0000000000
       972         8  POPC      H2R             2.2518407313       13.3497111001       12.2382165488  MEMB      8               0.0000000000
       973         8  POPC      H2S             3.5521332443       12.1037581495       12.3504784141  MEMB      8               0.0000000000
       974         8  POPC      C3              6.6285894557       14.0263740969       15.4225124669  MEMB      8               0.0000000000
       975         8  POPC      HX              6.8797126588       14.6080482231       16.3283006297  MEMB      8               0.0000000000
       976         8  POPC      HY              6.8374429979       14.6765907983       14.6256922883  MEMB      8               0.0000000000
       977         8  POPC      O31             7.5123450752       12.9285846527       15.2385514546  MEMB      8               0.0000000000
       978         8  POPC      C31             7.9563285804       12.8142217753       13.9891378808  MEMB      8               0.0000000000
       979         8  POPC      O32             7.9225320290       13.6277956333       13.1063420094  MEMB      8               0.0000000000
       980         8  POPC      C32             8.4236395472       11.5049479722       13.7301329163  MEMB      8               0.0000000000
       981         8  POPC      H2X             7.4913511385       10.9210236738       13.5380277547  MEMB      8               0.0000000000
       982         8  POPC      H2Y             8.9779869463       11.1529060644       14.6225636358  MEMB      8               0.0000000000
       983         8  POPC      C23             3.8450065824       13.6328108668       10.8417686798  MEMB      8               0.0000000000
       984         8  POPC      H3R             4.9534750216       13.6165423436       10.7262232764  MEMB      8               0.0000000000
       985         8  POPC      H3S             3.5129989526       14.6750905794       10.6203315377  MEMB      8               0.0000000000
       986         8  POPC      C24             3.1842456894       12.6352057076        9.9134025492  MEMB      8               0.0000000000
       987         8  POPC      H4R             2.2644757014       12.1850885181       10.3300341967  MEMB      8               0.0000000000
       988         8  POPC      H4S             3.8937450466       11.8139493746        9.6342122312  MEMB      8               0.0000000000
       989         8  POPC      C25             2.6272924409       13.2513310198        8.7097209997  MEMB      8               0.0000000000
       990         8  POPC      H5R             2.3889124512       14.3276378363        8.7986710143  MEMB      8               0.0000000000
       991         8  POPC      H5S             1.6738078104       12.8709956228        8.4162186158  MEMB      8               0.0000000000
       992         8  POPC      C26             3.5763911866       12.7198746530        7.7188522732  MEMB      8               0.0000000000
       993         8  POPC      H6R             3.8364970405       11.6481153266        7.6294857276  MEMB      8               0.0000000000
       994         8  POPC      H6S             4.5071768402       13.3088163227        7.8359285880  MEMB      8               0.0000000000
       995         8  POPC      C27             3.0616961095       12.7075610740        6.4297330796  MEMB      8               0.0000000000
       996         8  POPC      H7R             2.5232196323       13.6938112209        6.5986268065  MEMB      8               0.0000000000
       997         8  POPC      H7S             2.0276120731       12.8037076624        6.0703273216  MEMB      8               0.0000000000
       998         8  POPC      C28             4.5640400229       12.5211551332        5.5553792353  MEMB      8               0.0000000000
       999         8  POPC      H8R             3.5187345367       12.6223901362        5.0923150789  MEMB      8               0.0000000000
      1000         8  POPC      H8S             4.3020074769       11.5888455090        4.9469854874  MEMB      8               0.0000000000
      1001         8  POPC      C29             5.9818055656       13.7718446690        5.1268845211  MEMB      8               0.0000000000
      1002         8  POPC      H91             6.9478427981       13.5527136362        5.5430612271  MEMB      8               0.0000000000
      1003         8  POPC      C210            6.0495896720       15.2511701811        4.4028231633  MEMB      8               0.0000000000
      1004         8  POPC      H101            6.8460641616       15.9922185498        4.5930335212  MEMB      8               0.0000000000
      1005         8  POPC      C211            4.8793007838       16.3758761091        3.6617990731  MEMB      8               0.0000000000
      1006         8  POPC      H11R            3.7405957456       16.3589706841        3.6776141585  MEMB      8               0.0000000000
      1007         8  POPC      H11S            4.3932401640       16.2855587237        2.6436355706  MEMB      8               0.0000000000
      1008         8  POPC      C212            4.9872906323       17.8021740290        3.3515551459  MEMB      8               0.0000000000
      1009         8  POPC      H12R            5.3582809281       18.1080059201        4.3347333345  MEMB      8               0.0000000000
      1010         8  POPC      H12S            4.1293277136       18.3595350268        2.9331804339  MEMB      8               0.0000000000
      1011         8  POPC      C213            5.9390143553       17.8384738746        2.2410082716  MEMB      8               0.0000000000
      1012         8  POPC      H13R            6.5220462514       17.1043407279        2.7084742207  MEMB      8               0.0000000000
      1013         8  POPC      H13S            6.7329084513       18.5207754916        2.4803778658  MEMB      8               0.0000000000
      1014         8  POPC      C214            5.4542878885       17.5820025544        0.7443439305  MEMB      8               0.0000000000
      1015         8  POPC      H14R            4.6230150927       18.2518071286        0.4733633536  MEMB      8               0.0000000000
      1016         8  POPC      H14S            4.9621539781       16.6364366876        0.5169156184  MEMB      8               0.0000000000
      1017         8  POPC      C215            6.4960378651       17.5401850621       -0.3718332052  MEMB      8               0.0000000000
      1018         8  POPC      H15R            7.2155038541       18.2681492628       -0.5146019272  MEMB      8               0.0000000000
      1019         8  POPC      H15S            6.0899271880       18.1632408071       -1.1490664297  MEMB      8               0.0000000000
      1020         8  POPC      C216            7.2319005788       16.3076979933       -0.8144679780  MEMB      8               0.0000000000
      1021         8  POPC      H16R            6.5089707667       15.5482065482       -1.1971716414  MEMB      8               0.0000000000
      1022         8  POPC      H16S            7.8296787091       15.5713048385       -0.2720138234  MEMB      8               0.0000000000
      1023         8  POPC      C217            8.3860092969       16.7756172200       -1.5443083837  MEMB      8               0.0000000000
      1024         8  POPC      H17R            9.3552437637       16.9133214753       -1.0036238949  MEMB      8               0.0000000000
      1025         8  POPC      H17S            8.2642492062       17.3326619746       -2.4578540843  MEMB      8               0.0000000000
      1026         8  POPC      C218            8.5240854575       15.6780211514       -2.2174521150  MEMB      8               0.0000000000
      1027         8  POPC      H18R            7.7772002385       14.8997170304       -2.1960265477  MEMB      8               0.0000000000
      1028         8  POPC      H18S            9.1115590418       15.1781575591       -1.4641553034  MEMB      8               0.0000000000
      1029         8  POPC      H18T            9.0616284487       15.7129485751       -3.1593088502  MEMB      8               0.0000000000
      1030         8  POPC      C33             9.2849935773       11.6084640496       12.4844565675  MEMB      8               0.0000000000
      1031         8  POPC      H3X            10.2696595265       12.1035471297       12.6751068160  MEMB      8               0.0000000000
      1032         8  POPC      H3Y             8.8337100180       12.0838427040       11.5796361622  MEMB      8               0.0000000000
      1033         8  POPC      C34             9.4413193791       10.1883381418       12.1481405425  MEMB      8               0.0000000000
      1034         8  POPC      H4X             8.4811107213        9.6982075836       11.8685583507  MEMB      8               0.0000000000
      1035         8  POPC      H4Y             9.8143935128        9.6894551236       13.0771870847  MEMB      8               0.0000000000
      1036         8  POPC      C35            10.4361523013       10.0298286081       11.0624191405  MEMB      8               0.0000000000
      1037         8  POPC      H5X            10.1963745714        8.9880142403       10.8659863570  MEMB      8               0.0000000000
      1038         8  POPC      H5Y            11.4180949159       10.2353188486       11.5344370417  MEMB      8               0.0000000000
      1039         8  POPC      C36            10.3760430004       10.7379277397        9.7319338638  MEMB      8               0.0000000000
      1040         8  POPC      H6X            11.1296396432       10.2466309871        9.0755655137  MEMB      8               0.0000000000
      1041         8  POPC      H6Y            10.6395754470       11.8077148253        9.8803350328  MEMB      8               0.0000000000
      1042         8  POPC      C37             9.1145083855       10.4938373845        8.9578265222  MEMB      8               0.0000000000
      1043         8  POPC      H7X             8.2611515352       10.6347356672        9.6487896500  MEMB      8               0.0000000000
      1044         8  POPC      H7Y             9.1200795477        9.4402105735        8.5860728818  MEMB      8               0.0000000000
      1045         8  POPC      C38             9.0182195129       11.4119495712        7.7591076198  MEMB      8               0.0000000000
      1046         8  POPC      H8X             9.4138373061       10.8737788957        6.8660210775  MEMB      8               0.0000000000
      1047         8  POPC      H8Y             9.6231709038       12.3382296400        7.9005141834  MEMB      8               0.0000000000
      1048         8  POPC      C39             7.5804234826       11.8157701671        7.5243214136  MEMB      8               0.0000000000
      1049         8  POPC      H9X             7.6280761924       12.3760431713        6.5956581854  MEMB      8               0.0000000000
      1050         8  POPC      H9Y             7.2073596452       12.4800350667        8.3297318193  MEMB      8               0.0000000000
      1051         8  POPC      C310            6.6441225578       10.6352813002        7.3190191089  MEMB      8               0.0000000000
      1052         8  POPC      H10X            5.6508055310       11.0180335807        7.0292905050  MEMB      8               0.0000000000
      1053         8  POPC      H10Y            6.5253372436       10.0542762334        8.2530289434  MEMB      8               0.0000000000
      1054         8  POPC      C311            7.1388500041        9.7589604810        6.1914883766  MEMB      8               0.0000000000
      1055         8  POPC      H11X            7.9313727660        9.0563113941        6.5178810911  MEMB      8               0.0000000000
      1056         8  POPC      H11Y            7.5551800193       10.4287498937        5.3954354792  MEMB      8               0.0000000000
      1057         8  POPC      C312            6.0337157349        9.0090024273        5.5196173670  MEMB      8               0.0000000000
      1058         8  POPC      H12X            5.2231195906        9.7352712657        5.3204426446  MEMB      8               0.0000000000
      1059         8  POPC      H12Y            5.5764320869        8.1852045528        6.1060232231  MEMB      8               0.0000000000
      1060         8  POPC      C313            6.6282929915        8.4656022430        4.2493321077  MEMB      8               0.0000000000
      1061         8  POPC      H13X            6.1033039444        7.5669495490        4.1207717237  MEMB      8               0.0000000000
      1062         8  POPC      H13Y            7.6991181437        8.1865208394        4.2574342373  MEMB      8               0.0000000000
      1063         8  POPC      C314            6.1884628943        9.2337791089        3.0700209560  MEMB      8               0.0000000000
      1064         8  POPC      H14X            6.5381197657        8.7118007904        2.1407184598  MEMB      8               0.0000000000
      1065         8  POPC      H14Y            6.6463850791       10.2503369210        3.1509272016  MEMB      8               0.0000000000
      1066         8  POPC      C315            4.6852231098        9.3412531504        2.9860546788  MEMB      8               0.0000000000
      1067         8  POPC      H15X            4.0887209987        9.7327566702        3.8203613732  MEMB      8               0.0000000000
      1068         8  POPC      H15Y            4.2271640412        8.3909929754        2.6051332650  MEMB      8               0.0000000000
      1069         8  POPC      C316            4.5465240672       10.3372360533        1.9649051049  MEMB      8               0.0000000000
      1070         8  POPC      H16X            5.2842346013       11.1663537889        1.8793800301  MEMB      8               0.0000000000
      1071         8  POPC      H16Y            3.5133630913       10.7229934417        1.8253963634  MEMB      8               0.0000000000
      1072         8  POPC      H16Z            4.8257566342        9.6215197654        1.1479269352  MEMB      8               0.0000000000
      1073         9  POPC      N             -12.0535191031       -2.9162076361       21.2286161236  MEMB      9               0.0000000000
      1074         9  POPC      C12           -12.9389439528       -2.9988405693       19.9775564262  MEMB      9               0.0000000000
      1075         9  POPC      H12A          -13.9710323671       -2.8431563618       20.2633426828  MEMB      9               0.0000000000
      1076         9  POPC      H12B          -12.8616118262       -4.0017044180       19.5464258883  MEMB      9               0.0000000000
      1077         9  POPC      C13           -12.7164554165       -3.7307428828       22.2747306665  MEMB      9               0.0000000000
      1078         9  POPC      H13A          -13.7319042894       -3.3720196629       22.4436954555  MEMB      9               0.0000000000
      1079         9  POPC      H13B          -12.7155322302       -4.7713491365       21.9588918151  MEMB      9               0.0000000000
      1080         9  POPC      H13C          -12.1760529823       -3.6760484189       23.2098592891  MEMB      9               0.0000000000
      1081         9  POPC      C14           -10.7206516084       -3.5396785039       20.9888944848  MEMB      9               0.0000000000
      1082         9  POPC      H14A          -10.1603792889       -3.6542334141       21.9151455472  MEMB      9               0.0000000000
      1083         9  POPC      H14B          -10.8345620782       -4.5077154594       20.5159745097  MEMB      9               0.0000000000
      1084         9  POPC      H14C          -10.1582949205       -2.9126123631       20.3083679449  MEMB      9               0.0000000000
      1085         9  POPC      C15           -11.8167146582       -1.4991839712       21.6883106388  MEMB      9               0.0000000000
      1086         9  POPC      H15A          -11.1224294003       -1.4678971315       22.5199852920  MEMB      9               0.0000000000
      1087         9  POPC      H15B          -12.7196189306       -0.9910503458       22.0101738154  MEMB      9               0.0000000000
      1088         9  POPC      H15C          -11.3465430351       -0.9234541157       20.8956141112  MEMB      9               0.0000000000
      1089         9  POPC      C11           -12.6865319623       -2.0931983138       18.7621623526  MEMB      9               0.0000000000
      1090         9  POPC      H11A          -12.5882643787       -1.0217344346       19.0255162478  MEMB      9               0.0000000000
      1091         9  POPC      H11B          -13.6057933153       -2.1887045074       18.1281678697  MEMB      9               0.0000000000
      1092         9  POPC      P             -11.5953807107       -3.4441428290       16.7875981695  MEMB      9               0.0000000000
      1093         9  POPC      O13           -11.9021225763       -4.8047733208       17.2997606939  MEMB      9               0.0000000000
      1094         9  POPC      O14           -10.3432936916       -3.2444352196       16.0215090383  MEMB      9               0.0000000000
      1095         9  POPC      O12           -11.5169645753       -2.5284073699       18.0933376525  MEMB      9               0.0000000000
      1096         9  POPC      O11           -12.8507191317       -2.8774137862       16.0025957986  MEMB      9               0.0000000000
      1097         9  POPC      C1            -13.9699361100       -3.7019853881       15.6766899215  MEMB      9               0.0000000000
      1098         9  POPC      HA            -14.6934887155       -2.9892609773       15.2862557417  MEMB      9               0.0000000000
      1099         9  POPC      HB            -14.4357713705       -4.1785471585       16.5641796202  MEMB      9               0.0000000000
      1100         9  POPC      C2            -13.8050327328       -4.7039578243       14.4877690503  MEMB      9               0.0000000000
      1101         9  POPC      HS            -13.6970869634       -5.7305197916       14.8994340002  MEMB      9               0.0000000000
      1102         9  POPC      O21           -12.6566536448       -4.3036847319       13.7239895878  MEMB      9               0.0000000000
      1103         9  POPC      C21           -11.8814640939       -5.2326156741       13.2512238358  MEMB      9               0.0000000000
      1104         9  POPC      O22           -12.1783499143       -6.4075334952       13.0946813336  MEMB      9               0.0000000000
      1105         9  POPC      C22           -10.5369446068       -4.5843797861       12.8821088088  MEMB      9               0.0000000000
      1106         9  POPC      H2R            -9.7804999840       -5.0897828386       13.5216042506  MEMB      9               0.0000000000
      1107         9  POPC      H2S           -10.5528945518       -3.5095166936       13.1517306653  MEMB      9               0.0000000000
      1108         9  POPC      C3            -15.0759731358       -4.6750153257       13.6082050699  MEMB      9               0.0000000000
      1109         9  POPC      HX            -15.9988431132       -4.8013092227       14.2181732055  MEMB      9               0.0000000000
      1110         9  POPC      HY            -15.0219350332       -5.5017506083       12.8594475084  MEMB      9               0.0000000000
      1111         9  POPC      O31           -15.1375907739       -3.3908045938       13.0021452662  MEMB      9               0.0000000000
      1112         9  POPC      C31           -15.8046091973       -3.3940830165       11.8955782554  MEMB      9               0.0000000000
      1113         9  POPC      O32           -16.3627676572       -4.3435132754       11.3669950498  MEMB      9               0.0000000000
      1114         9  POPC      C32           -15.7532883026       -1.9989283665       11.4131349023  MEMB      9               0.0000000000
      1115         9  POPC      H2X           -14.7095878252       -1.7308831979       11.1429208266  MEMB      9               0.0000000000
      1116         9  POPC      H2Y           -15.9641563795       -1.2776975077       12.2237112552  MEMB      9               0.0000000000
      1117         9  POPC      C23           -10.1712448119       -4.7415430410       11.3932750621  MEMB      9               0.0000000000
      1118         9  POPC      H3R           -10.2941643405       -5.8154584821       11.1880878410  MEMB      9               0.0000000000
      1119         9  POPC      H3S            -9.1157514641       -4.4388785913       11.2003661005  MEMB      9               0.0000000000
      1120         9  POPC      C24           -11.1512831457       -4.1171418345       10.3961040127  MEMB      9               0.0000000000
      1121         9  POPC      H4R           -11.1024047932       -3.0105934485       10.3715844895  MEMB      9               0.0000000000
      1122         9  POPC      H4S           -12.1640056295       -4.3944078859       10.7687056711  MEMB      9               0.0000000000
      1123         9  POPC      C25           -11.0148764484       -4.7238190942        8.9886314731  MEMB      9               0.0000000000
      1124         9  POPC      H5R           -10.6158057661       -5.7640382622        9.0603596912  MEMB      9               0.0000000000
      1125         9  POPC      H5S           -10.2927182012       -4.1332147325        8.3876016616  MEMB      9               0.0000000000
      1126         9  POPC      C26           -12.3768091061       -4.8395576499        8.2913214140  MEMB      9               0.0000000000
      1127         9  POPC      H6R           -12.8521058066       -3.8371899392        8.2287238090  MEMB      9               0.0000000000
      1128         9  POPC      H6S           -13.0185415647       -5.4727043062        8.9492109419  MEMB      9               0.0000000000
      1129         9  POPC      C27           -12.2942043281       -5.5229399773        6.9164142776  MEMB      9               0.0000000000
      1130         9  POPC      H7R           -13.2952988445       -5.9538069654        6.6679501900  MEMB      9               0.0000000000
      1131         9  POPC      H7S           -11.5868098166       -6.3766365362        6.9896477402  MEMB      9               0.0000000000
      1132         9  POPC      C28           -11.7962359224       -4.5832398689        5.8008980018  MEMB      9               0.0000000000
      1133         9  POPC      H8R           -10.9083211433       -4.0220836542        6.1132819908  MEMB      9               0.0000000000
      1134         9  POPC      H8S           -12.5628463941       -3.7753781762        5.6910856730  MEMB      9               0.0000000000
      1135         9  POPC      C29           -11.4378494261       -5.2904415674        4.5077435641  MEMB      9               0.0000000000
      1136         9  POPC      H91           -10.5038914789       -5.8326151141        4.3951472971  MEMB      9               0.0000000000
      1137         9  POPC      C210          -12.3209778348       -5.5588215208        3.5877300306  MEMB      9               0.0000000000
      1138         9  POPC      H101          -12.0748505224       -5.8196757590        2.5460365679  MEMB      9               0.0000000000
      1139         9  POPC      C211          -13.6712953830       -5.1526332945        3.8417340929  MEMB      9               0.0000000000
      1140         9  POPC      H11R          -13.5797255827       -4.1759239158        3.3502563981  MEMB      9               0.0000000000
      1141         9  POPC      H11S          -13.9614283887       -4.7025824958        4.7949312074  MEMB      9               0.0000000000
      1142         9  POPC      C212          -14.5351043354       -6.3214853563        3.3217713280  MEMB      9               0.0000000000
      1143         9  POPC      H12R          -15.6139016531       -5.9731068673        3.3530731699  MEMB      9               0.0000000000
      1144         9  POPC      H12S          -15.0500777931       -6.7472892366        4.2144531125  MEMB      9               0.0000000000
      1145         9  POPC      C213          -14.0830472299       -6.8112186795        1.7089608955  MEMB      9               0.0000000000
      1146         9  POPC      H13R          -15.0517181374       -7.4212316911        1.4878637852  MEMB      9               0.0000000000
      1147         9  POPC      H13S          -13.7093656265       -7.8217531892        1.7735986692  MEMB      9               0.0000000000
      1148         9  POPC      C214          -13.9459023443       -5.5405240487        0.1611034999  MEMB      9               0.0000000000
      1149         9  POPC      H14R          -13.6920513040       -6.4942191370       -0.0917294439  MEMB      9               0.0000000000
      1150         9  POPC      H14S          -13.1076112985       -4.9147839850        0.2834610708  MEMB      9               0.0000000000
      1151         9  POPC      C215          -15.1765837096       -4.1622099059       -0.6571112805  MEMB      9               0.0000000000
      1152         9  POPC      H15R          -15.5754617288       -3.2977489492       -0.1652000155  MEMB      9               0.0000000000
      1153         9  POPC      H15S          -16.3053193920       -4.2831446674       -0.6065700819  MEMB      9               0.0000000000
      1154         9  POPC      C216          -16.0098164677       -4.0193619691       -2.0006222659  MEMB      9               0.0000000000
      1155         9  POPC      H16R          -16.2527725553       -4.7870713469       -2.7080173391  MEMB      9               0.0000000000
      1156         9  POPC      H16S          -14.9792444411       -4.1232376039       -2.0301718308  MEMB      9               0.0000000000
      1157         9  POPC      C217          -16.9418235017       -2.8727561976       -2.3546123965  MEMB      9               0.0000000000
      1158         9  POPC      H17R          -16.6707578452       -1.9946120305       -2.8949361073  MEMB      9               0.0000000000
      1159         9  POPC      H17S          -17.3576079313       -2.1972144125       -1.5708295726  MEMB      9               0.0000000000
      1160         9  POPC      C218          -17.8463299468       -3.5376052436       -3.2294919969  MEMB      9               0.0000000000
      1161         9  POPC      H18R          -18.5920416848       -2.7946842739       -3.2050815849  MEMB      9               0.0000000000
      1162         9  POPC      H18S          -18.0222738827       -4.0043869563       -2.2667470003  MEMB      9               0.0000000000
      1163         9  POPC      H18T          -18.2056797685       -4.5510400663       -3.4136799499  MEMB      9               0.0000000000
      1164         9  POPC      C33           -16.7748846408       -1.9216277070       10.2837259355  MEMB      9               0.0000000000
      1165         9  POPC      H3X           -17.0441415180       -0.8817664344       10.0418188167  MEMB      9               0.0000000000
      1166         9  POPC      H3Y           -17.7900117749       -2.2829260452       10.4742722072  MEMB      9               0.0000000000
      1167         9  POPC      C34           -16.1850787960       -2.7085416564        9.1320841004  MEMB      9               0.0000000000
      1168         9  POPC      H4X           -15.2118802959       -3.1994431860        9.3239096997  MEMB      9               0.0000000000
      1169         9  POPC      H4Y           -15.7207343690       -2.1902074934        8.3331268516  MEMB      9               0.0000000000
      1170         9  POPC      C35           -17.2456497751       -3.0909800607        8.1941450354  MEMB      9               0.0000000000
      1171         9  POPC      H5X           -18.2153566960       -2.5966149126        8.3169027872  MEMB      9               0.0000000000
      1172         9  POPC      H5Y           -17.2067269462       -4.1020914561        8.6271306776  MEMB      9               0.0000000000
      1173         9  POPC      C36           -16.8649351417       -2.8560792875        6.7140152603  MEMB      9               0.0000000000
      1174         9  POPC      H6X           -17.0720178632       -3.7374823102        6.1816600755  MEMB      9               0.0000000000
      1175         9  POPC      H6Y           -15.8778325905       -3.3705797568        6.8513897810  MEMB      9               0.0000000000
      1176         9  POPC      C37           -17.2700242905       -1.4373515654        5.6447554780  MEMB      9               0.0000000000
      1177         9  POPC      H7X           -16.6460714471       -1.3854620399        6.4441537311  MEMB      9               0.0000000000
      1178         9  POPC      H7Y           -18.2525327213       -1.1390441125        5.9093134544  MEMB      9               0.0000000000
      1179         9  POPC      C38           -16.4483520281       -0.2882151343        4.3823320065  MEMB      9               0.0000000000
      1180         9  POPC      H8X           -17.1440669009        0.0119497717        3.5788574786  MEMB      9               0.0000000000
      1181         9  POPC      H8Y           -15.7237207322       -0.8477206736        4.0472367059  MEMB      9               0.0000000000
      1182         9  POPC      C39           -14.8002481499       -0.0706982106        3.6136990478  MEMB      9               0.0000000000
      1183         9  POPC      H9X           -13.9421534350       -0.5872845662        4.1327325431  MEMB      9               0.0000000000
      1184         9  POPC      H9Y           -14.3547665021        0.8830078150        3.8468047059  MEMB      9               0.0000000000
      1185         9  POPC      C310          -13.9708314495       -0.5462981868        2.4310501097  MEMB      9               0.0000000000
      1186         9  POPC      H10X          -14.4416891666        0.1346491228        1.7093420949  MEMB      9               0.0000000000
      1187         9  POPC      H10Y          -13.9724997668       -1.6192684458        2.1581836420  MEMB      9               0.0000000000
      1188         9  POPC      C311          -12.4629916827       -0.3265648410        2.7958000285  MEMB      9               0.0000000000
      1189         9  POPC      H11X          -12.1013200389       -1.1376099201        3.4793788942  MEMB      9               0.0000000000
      1190         9  POPC      H11Y          -12.3401744293        0.6582052823        3.2744993500  MEMB      9               0.0000000000
      1191         9  POPC      C312          -11.5346033908       -0.3228511026        1.6617506370  MEMB      9               0.0000000000
      1192         9  POPC      H12X          -11.8551038537        0.5356062895        1.0220123361  MEMB      9               0.0000000000
      1193         9  POPC      H12Y          -11.5736069393       -1.3295009948        1.2045174651  MEMB      9               0.0000000000
      1194         9  POPC      C313          -10.1115148616       -0.2183646161        1.9898013881  MEMB      9               0.0000000000
      1195         9  POPC      H13X           -9.9755170097        0.6799644656        2.6082792358  MEMB      9               0.0000000000
      1196         9  POPC      H13Y           -9.6418446761       -0.0099248891        1.0292669427  MEMB      9               0.0000000000
      1197         9  POPC      C314           -9.5263317439       -1.4964029725        2.5998192769  MEMB      9               0.0000000000
      1198         9  POPC      H14X           -9.8859901428       -1.5791149138        3.6477003112  MEMB      9               0.0000000000
      1199         9  POPC      H14Y           -8.4376801869       -1.2947275815        2.6064362566  MEMB      9               0.0000000000
      1200         9  POPC      C315           -9.7817646658       -2.8644332184        1.9122459720  MEMB      9               0.0000000000
      1201         9  POPC      H15X          -10.8566319056       -3.1459736139        2.0068706705  MEMB      9               0.0000000000
      1202         9  POPC      H15Y           -9.1917340848       -3.6211044873        2.4774860800  MEMB      9               0.0000000000
      1203         9  POPC      C316           -9.3927745015       -2.9560252061        0.4360980436  MEMB      9               0.0000000000
      1204         9  POPC      H16X           -9.6209567167       -3.9471429077       -0.0042947044  MEMB      9               0.0000000000
      1205         9  POPC      H16Y           -8.3128929379       -2.7302126162        0.3111635991  MEMB      9               0.0000000000
      1206         9  POPC      H16Z           -9.9870556806       -2.2378057936       -0.1489788399  MEMB      9               0.0000000000
      1207        10  POPC      N              10.7897469380        2.9139046202       18.9103252488  MEMB      10              0.0000000000
      1208        10  POPC      C12            10.9968325993        4.2231549263       18.1663689161  MEMB      10              0.0000000000
      1209        10  POPC      H12A           10.3316545824        4.9890312835       18.5275792466  MEMB      10              0.0000000000
      1210        10  POPC      H12B           10.7413785143        4.0392123951       17.1253035272  MEMB      10              0.0000000000
      1211        10  POPC      C13             9.4774700399        2.3145735348       18.5057656905  MEMB      10              0.0000000000
      1212        10  POPC      H13A            9.1205801414        1.5941763179       19.2310024177  MEMB      10              0.0000000000
      1213        10  POPC      H13B            8.7254546745        3.0886945154       18.4189780299  MEMB      10              0.0000000000
      1214        10  POPC      H13C            9.5338912063        1.8384407350       17.5325181522  MEMB      10              0.0000000000
      1215        10  POPC      C14            11.9443570031        2.0816477955       18.4881740632  MEMB      10              0.0000000000
      1216        10  POPC      H14A           11.9324155470        1.1392144330       19.0103764272  MEMB      10              0.0000000000
      1217        10  POPC      H14B           11.8934132378        1.9026709290       17.4156169114  MEMB      10              0.0000000000
      1218        10  POPC      H14C           12.8925949201        2.5821638664       18.6761096636  MEMB      10              0.0000000000
      1219        10  POPC      C15            10.8311208142        3.0484439937       20.4031029821  MEMB      10              0.0000000000
      1220        10  POPC      H15A           11.6338466142        3.7287036454       20.6988589440  MEMB      10              0.0000000000
      1221        10  POPC      H15B           11.0263877182        2.0888855585       20.8663006172  MEMB      10              0.0000000000
      1222        10  POPC      H15C            9.9151883621        3.4487427522       20.8019152114  MEMB      10              0.0000000000
      1223        10  POPC      C11            12.4275370494        4.8248533906       18.1174956384  MEMB      10              0.0000000000
      1224        10  POPC      H11A           12.3357222801        5.7190101576       17.4506392592  MEMB      10              0.0000000000
      1225        10  POPC      H11B           13.1421313352        4.1393282931       17.6061829172  MEMB      10              0.0000000000
      1226        10  POPC      P              14.1942918685        6.1882990145       19.3959204840  MEMB      10              0.0000000000
      1227        10  POPC      O13            15.2488849449        5.6276461498       20.2507525133  MEMB      10              0.0000000000
      1228        10  POPC      O14            13.7689987000        7.5714185526       19.7084298905  MEMB      10              0.0000000000
      1229        10  POPC      O12            12.9332424444        5.1830550556       19.4092315197  MEMB      10              0.0000000000
      1230        10  POPC      O11            14.7058467991        6.1356642125       17.8866917115  MEMB      10              0.0000000000
      1231        10  POPC      C1             15.8167794400        6.9456206533       17.5026538280  MEMB      10              0.0000000000
      1232        10  POPC      HA             16.3467246354        6.4665799620       16.6482539769  MEMB      10              0.0000000000
      1233        10  POPC      HB             16.5290700392        7.0842154676       18.3437239213  MEMB      10              0.0000000000
      1234        10  POPC      C2             15.3554229827        8.3422553389       17.0768275237  MEMB      10              0.0000000000
      1235        10  POPC      HS             14.9874452825        8.8367519561       18.0105403971  MEMB      10              0.0000000000
      1236        10  POPC      O21            14.3299477936        8.1909341906       16.0859935032  MEMB      10              0.0000000000
      1237        10  POPC      C21            13.4245256185        9.1570495474       16.1651197527  MEMB      10              0.0000000000
      1238        10  POPC      O22            13.5250440995       10.1266305900       16.8864996093  MEMB      10              0.0000000000
      1239        10  POPC      C22            12.2897157367        8.8421991922       15.1861275250  MEMB      10              0.0000000000
      1240        10  POPC      H2R            11.5544763767        9.6707528192       15.2431882355  MEMB      10              0.0000000000
      1241        10  POPC      H2S            11.8197717589        7.9066150232       15.5482263293  MEMB      10              0.0000000000
      1242        10  POPC      C3             16.4892009584        9.2125906399       16.5239359310  MEMB      10              0.0000000000
      1243        10  POPC      HX             17.2338788633        9.4092230311       17.3251630003  MEMB      10              0.0000000000
      1244        10  POPC      HY             15.9874759926       10.1912412225       16.3027339118  MEMB      10              0.0000000000
      1245        10  POPC      O31            17.1597271207        8.5925930361       15.3949737134  MEMB      10              0.0000000000
      1246        10  POPC      C31            16.5615705846        8.8724817912       14.2221904425  MEMB      10              0.0000000000
      1247        10  POPC      O32            15.7182724849        9.7244604788       14.0744923053  MEMB      10              0.0000000000
      1248        10  POPC      C32            17.2540699351        8.1875281236       13.0351806745  MEMB      10              0.0000000000
      1249        10  POPC      H2X            17.1485061667        7.1086106758       13.2140000354  MEMB      10              0.0000000000
      1250        10  POPC      H2Y            18.3380640306        8.4290701103       13.0185264194  MEMB      10              0.0000000000
      1251        10  POPC      C23            12.8300823177        8.6474061819       13.7360645023  MEMB      10              0.0000000000
      1252        10  POPC      H3R            13.7899786758        8.0831272940       13.7741892816  MEMB      10              0.0000000000
      1253        10  POPC      H3S            13.0599018425        9.6556673456       13.3234353257  MEMB      10              0.0000000000
      1254        10  POPC      C24            11.9587834318        7.8216927043       12.7649423590  MEMB      10              0.0000000000
      1255        10  POPC      H4R            10.9036411536        8.1200919154       12.8446108851  MEMB      10              0.0000000000
      1256        10  POPC      H4S            11.9878580562        6.7633914602       13.0876050517  MEMB      10              0.0000000000
      1257        10  POPC      C25            12.4743960413        7.8958432322       11.3013335739  MEMB      10              0.0000000000
      1258        10  POPC      H5R            13.5034513872        7.4908955264       11.2835456315  MEMB      10              0.0000000000
      1259        10  POPC      H5S            12.5858926528        8.9213793115       10.9673903006  MEMB      10              0.0000000000
      1260        10  POPC      C26            11.6620911353        7.2242250088       10.1792285255  MEMB      10              0.0000000000
      1261        10  POPC      H6R            12.2336872211        7.3641193725        9.2389378074  MEMB      10              0.0000000000
      1262        10  POPC      H6S            10.6674935586        7.6016065612        9.8807964569  MEMB      10              0.0000000000
      1263        10  POPC      C27            11.3721343320        5.8148637320       10.6086706938  MEMB      10              0.0000000000
      1264        10  POPC      H7R            10.6278965501        5.8500773862       11.4421169608  MEMB      10              0.0000000000
      1265        10  POPC      H7S            12.3278149898        5.4122708810       11.0075536596  MEMB      10              0.0000000000
      1266        10  POPC      C28            10.8288420294        4.9524747448        9.4778357480  MEMB      10              0.0000000000
      1267        10  POPC      H8R            10.6650951092        3.9530598194        9.9309357113  MEMB      10              0.0000000000
      1268        10  POPC      H8S            11.6247412283        4.8818508923        8.7013272195  MEMB      10              0.0000000000
      1269        10  POPC      C29             9.5396479468        5.5028107372        8.9191139301  MEMB      10              0.0000000000
      1270        10  POPC      H91             8.9044357152        6.0202624657        9.6559168737  MEMB      10              0.0000000000
      1271        10  POPC      C210            9.1185598439        5.3817634865        7.6489151657  MEMB      10              0.0000000000
      1272        10  POPC      H101            8.2080386848        5.9138510787        7.3288355244  MEMB      10              0.0000000000
      1273        10  POPC      C211            9.8614493075        4.6645729733        6.5522209861  MEMB      10              0.0000000000
      1274        10  POPC      H11R            9.1536829713        4.4058583808        5.7330831847  MEMB      10              0.0000000000
      1275        10  POPC      H11S           10.2756912957        3.7009068666        6.9262540505  MEMB      10              0.0000000000
      1276        10  POPC      C212           10.9599896977        5.5282993645        5.9127058293  MEMB      10              0.0000000000
      1277        10  POPC      H12R           11.5510717452        4.9014727914        5.2064568606  MEMB      10              0.0000000000
      1278        10  POPC      H12S           11.6736041394        5.9106523180        6.6769508630  MEMB      10              0.0000000000
      1279        10  POPC      C213           10.3429124940        6.6899302232        5.1236120973  MEMB      10              0.0000000000
      1280        10  POPC      H13R            9.8474172201        7.3938368556        5.8305209650  MEMB      10              0.0000000000
      1281        10  POPC      H13S            9.5544619476        6.2899085649        4.4441153390  MEMB      10              0.0000000000
      1282        10  POPC      C214           11.3767251238        7.4605479668        4.2994597248  MEMB      10              0.0000000000
      1283        10  POPC      H14R           12.2913802075        7.6011993655        4.9180588605  MEMB      10              0.0000000000
      1284        10  POPC      H14S           10.9500434179        8.4639952099        4.0805122974  MEMB      10              0.0000000000
      1285        10  POPC      C215           11.7462555414        6.7258778901        3.0007013635  MEMB      10              0.0000000000
      1286        10  POPC      H15R           10.8454537246        6.2187007162        2.5846363065  MEMB      10              0.0000000000
      1287        10  POPC      H15S           12.4829854820        5.9315886488        3.2545619688  MEMB      10              0.0000000000
      1288        10  POPC      C216           12.3767386542        7.5988484613        1.9093191199  MEMB      10              0.0000000000
      1289        10  POPC      H16R           12.7317036481        6.9333447200        1.0862870372  MEMB      10              0.0000000000
      1290        10  POPC      H16S           13.2336392902        8.1926172711        2.2863716535  MEMB      10              0.0000000000
      1291        10  POPC      C217           11.4171672971        8.5586276667        1.2486899718  MEMB      10              0.0000000000
      1292        10  POPC      H17R           10.9088065987        9.2060789169        2.0011450308  MEMB      10              0.0000000000
      1293        10  POPC      H17S           10.6282910164        7.9094254771        0.8021368236  MEMB      10              0.0000000000
      1294        10  POPC      C218           12.1343267604        9.4130782367        0.1880964131  MEMB      10              0.0000000000
      1295        10  POPC      H18R           12.7071467995        8.8170751379       -0.5432471369  MEMB      10              0.0000000000
      1296        10  POPC      H18S           12.7194675597       10.2429889661        0.6264403051  MEMB      10              0.0000000000
      1297        10  POPC      H18T           11.4399565249        9.9370586691       -0.4434386427  MEMB      10              0.0000000000
      1298        10  POPC      C33            16.5970465355        8.5985231950       11.6826924190  MEMB      10              0.0000000000
      1299        10  POPC      H3X            16.9315980735        9.5942971516       11.3232402778  MEMB      10              0.0000000000
      1300        10  POPC      H3Y            15.4914809767        8.6037428001       11.7930735944  MEMB      10              0.0000000000
      1301        10  POPC      C34            16.9193167224        7.6199334888       10.5660474368  MEMB      10              0.0000000000
      1302        10  POPC      H4X            16.5796136823        6.6450510429       10.9495458037  MEMB      10              0.0000000000
      1303        10  POPC      H4Y            17.9964668708        7.7096819195       10.3678767190  MEMB      10              0.0000000000
      1304        10  POPC      C35            16.1753855188        7.7518686709        9.2466612352  MEMB      10              0.0000000000
      1305        10  POPC      H5X            16.1247108631        8.8194289953        9.0025525881  MEMB      10              0.0000000000
      1306        10  POPC      H5Y            15.1639144420        7.3169636675        9.4152247485  MEMB      10              0.0000000000
      1307        10  POPC      C36            16.8624194368        7.0898603271        8.0431316761  MEMB      10              0.0000000000
      1308        10  POPC      H6X            17.2150807104        6.0827604101        8.3168260759  MEMB      10              0.0000000000
      1309        10  POPC      H6Y            17.7738634945        7.6692524961        7.7765731534  MEMB      10              0.0000000000
      1310        10  POPC      C37            15.9260560565        6.9279095195        6.8358303888  MEMB      10              0.0000000000
      1311        10  POPC      H7X            15.0724350865        7.6380719692        6.8828567834  MEMB      10              0.0000000000
      1312        10  POPC      H7Y            15.5133545928        5.8948835063        6.8745040328  MEMB      10              0.0000000000
      1313        10  POPC      C38            16.6152849739        7.1104358471        5.4855566816  MEMB      10              0.0000000000
      1314        10  POPC      H8X            17.6651656727        6.7657907265        5.5878388412  MEMB      10              0.0000000000
      1315        10  POPC      H8Y            16.5627146708        8.1863307265        5.2070034534  MEMB      10              0.0000000000
      1316        10  POPC      C39            15.9699527564        6.2817484001        4.3844290826  MEMB      10              0.0000000000
      1317        10  POPC      H9X            14.9281233382        6.6426656571        4.2411797059  MEMB      10              0.0000000000
      1318        10  POPC      H9Y            15.9304418154        5.2415286500        4.7737345250  MEMB      10              0.0000000000
      1319        10  POPC      C310           16.6926125692        6.2807035998        3.0285299704  MEMB      10              0.0000000000
      1320        10  POPC      H10X           17.7017350884        5.8209413613        3.1335418012  MEMB      10              0.0000000000
      1321        10  POPC      H10Y           16.8290862460        7.3177604965        2.6465924241  MEMB      10              0.0000000000
      1322        10  POPC      C311           15.8922763835        5.4741961660        1.9978711371  MEMB      10              0.0000000000
      1323        10  POPC      H11X           16.4620765863        5.4842673594        1.0402276552  MEMB      10              0.0000000000
      1324        10  POPC      H11Y           14.9327381226        6.0058632877        1.8139463475  MEMB      10              0.0000000000
      1325        10  POPC      C312           15.6041932613        4.0386964770        2.4965884082  MEMB      10              0.0000000000
      1326        10  POPC      H12X           15.1323550093        4.0370305705        3.4941741742  MEMB      10              0.0000000000
      1327        10  POPC      H12Y           16.5850804225        3.5138211597        2.5938055880  MEMB      10              0.0000000000
      1328        10  POPC      C313           14.5504679285        3.2445970065        1.7045010147  MEMB      10              0.0000000000
      1329        10  POPC      H13X           13.5600669858        3.7255891468        1.6969729006  MEMB      10              0.0000000000
      1330        10  POPC      H13Y           14.5228765650        2.1900564649        2.0818627305  MEMB      10              0.0000000000
      1331        10  POPC      C314           14.8604914947        3.2236310009        0.2575619686  MEMB      10              0.0000000000
      1332        10  POPC      H14X           15.9276322897        3.0693172811        0.4878642177  MEMB      10              0.0000000000
      1333        10  POPC      H14Y           15.0858547249        4.1983383810       -0.2034631018  MEMB      10              0.0000000000
      1334        10  POPC      C315           14.0430991185        2.1575997039       -0.6085495624  MEMB      10              0.0000000000
      1335        10  POPC      H15X           14.5097784340        1.5387105320       -1.4166505416  MEMB      10              0.0000000000
      1336        10  POPC      H15Y           13.3859825375        2.6920135553       -1.3089014934  MEMB      10              0.0000000000
      1337        10  POPC      C316           13.6243249490        0.8536101791        0.0496106853  MEMB      10              0.0000000000
      1338        10  POPC      H16X           14.4109132422        0.2870583741        0.5745984748  MEMB      10              0.0000000000
      1339        10  POPC      H16Y           13.3370375414        0.1134125121       -0.7277086394  MEMB      10              0.0000000000
      1340        10  POPC      H16Z           12.8037983775        1.1537890519        0.7060021215  MEMB      10              0.0000000000
      1341        11  POPC      N               7.8230079204      -12.8072166096       20.1168056416  MEMB      11              0.0000000000
      1342        11  POPC      C12             9.1259104296      -13.5843302064       20.0186346381  MEMB      11              0.0000000000
      1343        11  POPC      H12A            8.9115316256      -14.6341620159       19.9464162079  MEMB      11              0.0000000000
      1344        11  POPC      H12B            9.6937937828      -13.3936195086       20.9238694642  MEMB      11              0.0000000000
      1345        11  POPC      C13             8.0724661230      -11.3307975819       20.3611159311  MEMB      11              0.0000000000
      1346        11  POPC      H13A            8.3865337806      -10.8148540270       19.4461311902  MEMB      11              0.0000000000
      1347        11  POPC      H13B            7.2443671036      -10.8259569962       20.8289902644  MEMB      11              0.0000000000
      1348        11  POPC      H13C            8.9149996379      -11.1746696697       21.0365144425  MEMB      11              0.0000000000
      1349        11  POPC      C14             7.0152989468      -12.9923807079       18.8589237414  MEMB      11              0.0000000000
      1350        11  POPC      H14A            6.0071583523      -12.6305182644       18.9882730446  MEMB      11              0.0000000000
      1351        11  POPC      H14B            7.4637476586      -12.4416572912       18.0308582551  MEMB      11              0.0000000000
      1352        11  POPC      H14C            6.9753176973      -14.0331874010       18.5562875615  MEMB      11              0.0000000000
      1353        11  POPC      C15             7.0662627803      -13.3415691263       21.2772948108  MEMB      11              0.0000000000
      1354        11  POPC      H15A            6.8549049882      -14.3872206977       21.1031403371  MEMB      11              0.0000000000
      1355        11  POPC      H15B            6.1382622322      -12.7979133232       21.3954424640  MEMB      11              0.0000000000
      1356        11  POPC      H15C            7.6603476294      -13.1958658809       22.1758344709  MEMB      11              0.0000000000
      1357        11  POPC      C11            10.0598522218      -13.2645260522       18.8669111326  MEMB      11              0.0000000000
      1358        11  POPC      H11A            9.5708707739      -13.4389267174       17.8856977378  MEMB      11              0.0000000000
      1359        11  POPC      H11B           10.9903246192      -13.8645824616       18.9054097860  MEMB      11              0.0000000000
      1360        11  POPC      P              11.0594901113      -11.1125653980       17.9547560256  MEMB      11              0.0000000000
      1361        11  POPC      O13            12.4545253610      -11.0228721476       18.4170344144  MEMB      11              0.0000000000
      1362        11  POPC      O14            10.1545747470       -9.9677356239       17.8352802184  MEMB      11              0.0000000000
      1363        11  POPC      O12            10.4046378268      -11.9370909389       19.0510050106  MEMB      11              0.0000000000
      1364        11  POPC      O11            11.0199997925      -12.0275493255       16.6688849154  MEMB      11              0.0000000000
      1365        11  POPC      C1             12.2834850964      -12.4853506395       16.1701030386  MEMB      11              0.0000000000
      1366        11  POPC      HA             12.6573167204      -13.3398591582       16.7708720930  MEMB      11              0.0000000000
      1367        11  POPC      HB             13.0903089689      -11.6974332156       16.1413250520  MEMB      11              0.0000000000
      1368        11  POPC      C2             12.1241523879      -12.9311517232       14.7286845253  MEMB      11              0.0000000000
      1369        11  POPC      HS             13.1535212695      -13.2356970383       14.3780073700  MEMB      11              0.0000000000
      1370        11  POPC      O21            11.4234673950      -11.9007976960       13.9735686034  MEMB      11              0.0000000000
      1371        11  POPC      C21            12.2678770446      -11.3187621039       13.1598599618  MEMB      11              0.0000000000
      1372        11  POPC      O22            13.4453232193      -11.5411737790       13.1535355944  MEMB      11              0.0000000000
      1373        11  POPC      C22            11.6387894225      -10.3739306922       12.1537360493  MEMB      11              0.0000000000
      1374        11  POPC      H2R            12.3444199962       -9.5081176030       12.1550248787  MEMB      11              0.0000000000
      1375        11  POPC      H2S            10.6290936589      -10.1047167538       12.5153842386  MEMB      11              0.0000000000
      1376        11  POPC      C3             11.3492004685      -14.2140368456       14.5318990567  MEMB      11              0.0000000000
      1377        11  POPC      HX             10.2526700289      -14.0451408484       14.6432464902  MEMB      11              0.0000000000
      1378        11  POPC      HY             11.6480177756      -14.9739975164       15.2864768890  MEMB      11              0.0000000000
      1379        11  POPC      O31            11.7778972177      -14.6757504518       13.2453677899  MEMB      11              0.0000000000
      1380        11  POPC      C31            11.2375663010      -14.1742402867       12.1517349951  MEMB      11              0.0000000000
      1381        11  POPC      O32            10.3610279065      -13.3281387687       12.0892412156  MEMB      11              0.0000000000
      1382        11  POPC      C32            11.7209575320      -15.0508226038       10.9830312321  MEMB      11              0.0000000000
      1383        11  POPC      H2X            10.9670013409      -15.3878430998       10.2599497469  MEMB      11              0.0000000000
      1384        11  POPC      H2Y            12.1168477708      -16.0192746895       11.3115603329  MEMB      11              0.0000000000
      1385        11  POPC      C23            11.6251124102      -10.7727616020       10.6674787235  MEMB      11              0.0000000000
      1386        11  POPC      H3R            10.5901816471      -11.1168710477       10.4694474724  MEMB      11              0.0000000000
      1387        11  POPC      H3S            12.3362871987      -11.6109383990       10.5537259445  MEMB      11              0.0000000000
      1388        11  POPC      C24            12.0698023344       -9.6190862378        9.7306979464  MEMB      11              0.0000000000
      1389        11  POPC      H4R            13.0720328411       -9.1942769029        9.9006530355  MEMB      11              0.0000000000
      1390        11  POPC      H4S            11.4293570082       -8.7799512718        9.8845713110  MEMB      11              0.0000000000
      1391        11  POPC      C25            11.8582187979       -9.7415635897        8.2433289107  MEMB      11              0.0000000000
      1392        11  POPC      H5R            12.4335896438      -10.6020376811        7.8525411737  MEMB      11              0.0000000000
      1393        11  POPC      H5S            12.2269847227       -8.7993009236        7.7623776260  MEMB      11              0.0000000000
      1394        11  POPC      C26            10.3950858569       -9.8943198043        7.9174935612  MEMB      11              0.0000000000
      1395        11  POPC      H6R             9.8382011267       -8.9443326028        7.9015386840  MEMB      11              0.0000000000
      1396        11  POPC      H6S             9.8901382488      -10.5374054759        8.6687642070  MEMB      11              0.0000000000
      1397        11  POPC      C27            10.2791611602      -10.4759215221        6.5321289269  MEMB      11              0.0000000000
      1398        11  POPC      H7R            10.6783078446      -11.5111361324        6.6017038396  MEMB      11              0.0000000000
      1399        11  POPC      H7S            10.9578803493       -9.9137570459        5.8520754762  MEMB      11              0.0000000000
      1400        11  POPC      C28             8.8302399534      -10.4073912255        6.0241465660  MEMB      11              0.0000000000
      1401        11  POPC      H8R             8.7427935799      -11.0977311099        5.1613633355  MEMB      11              0.0000000000
      1402        11  POPC      H8S             8.6503184785       -9.4047567852        5.6103655527  MEMB      11              0.0000000000
      1403        11  POPC      C29             7.7752659894      -10.7051985684        7.0610787962  MEMB      11              0.0000000000
      1404        11  POPC      H91             7.1595517081       -9.8923616997        7.4638375694  MEMB      11              0.0000000000
      1405        11  POPC      C210            7.6526843122      -11.9038389716        7.5932355702  MEMB      11              0.0000000000
      1406        11  POPC      H101            6.8477539032      -12.1672515473        8.2968769904  MEMB      11              0.0000000000
      1407        11  POPC      C211            8.5342191693      -13.0145321867        7.2008780278  MEMB      11              0.0000000000
      1408        11  POPC      H11R            9.1502396088      -13.2627366286        8.0854383489  MEMB      11              0.0000000000
      1409        11  POPC      H11S            9.2739462865      -12.9077940677        6.3773028745  MEMB      11              0.0000000000
      1410        11  POPC      C212            7.5234819791      -14.0300542836        6.7521628515  MEMB      11              0.0000000000
      1411        11  POPC      H12R            6.6402596382      -14.2197853192        7.4003020806  MEMB      11              0.0000000000
      1412        11  POPC      H12S            8.2292194750      -14.8267334242        6.8158624836  MEMB      11              0.0000000000
      1413        11  POPC      C213            6.9802793186      -14.0656881053        5.3502812004  MEMB      11              0.0000000000
      1414        11  POPC      H13R            6.2195571573      -13.2608505700        5.3100848739  MEMB      11              0.0000000000
      1415        11  POPC      H13S            6.4806088472      -15.0482678028        5.2104676447  MEMB      11              0.0000000000
      1416        11  POPC      C214            7.9577259581      -13.9643508998        4.1978675823  MEMB      11              0.0000000000
      1417        11  POPC      H14R            8.7074439391      -14.7911904565        4.2170454229  MEMB      11              0.0000000000
      1418        11  POPC      H14S            8.4797272752      -12.9932359773        4.2477178256  MEMB      11              0.0000000000
      1419        11  POPC      C215            7.0813232683      -13.9986094004        2.9548376249  MEMB      11              0.0000000000
      1420        11  POPC      H15R            6.2063034399      -13.3364846663        3.1113714321  MEMB      11              0.0000000000
      1421        11  POPC      H15S            6.6498507463      -14.9714161248        2.8629283987  MEMB      11              0.0000000000
      1422        11  POPC      C216            7.7590633180      -13.6972195118        1.6403033268  MEMB      11              0.0000000000
      1423        11  POPC      H16R            8.5516006240      -14.4596230809        1.4473174459  MEMB      11              0.0000000000
      1424        11  POPC      H16S            8.2387376601      -12.7044601417        1.7538309539  MEMB      11              0.0000000000
      1425        11  POPC      C217            6.7396156292      -13.5952610235        0.4941113757  MEMB      11              0.0000000000
      1426        11  POPC      H17R            5.8774314161      -12.9691940089        0.7770186835  MEMB      11              0.0000000000
      1427        11  POPC      H17S            6.2826262602      -14.5464146226        0.2154734107  MEMB      11              0.0000000000
      1428        11  POPC      C218            7.3786940159      -13.1450467231       -0.7876917477  MEMB      11              0.0000000000
      1429        11  POPC      H18R            6.7183011173      -13.2194720747       -1.6784160118  MEMB      11              0.0000000000
      1430        11  POPC      H18S            8.1605139472      -13.8736487572       -0.9216058117  MEMB      11              0.0000000000
      1431        11  POPC      H18T            7.8897420070      -12.1708698123       -0.7012162225  MEMB      11              0.0000000000
      1432        11  POPC      C33            12.2941192956      -14.1940230177        9.9274207311  MEMB      11              0.0000000000
      1433        11  POPC      H3X            13.3275329149      -13.9896048646       10.2573408060  MEMB      11              0.0000000000
      1434        11  POPC      H3Y            11.6589182618      -13.2723285179        9.8533782857  MEMB      11              0.0000000000
      1435        11  POPC      C34            12.1564680883      -14.8291760843        8.5548841177  MEMB      11              0.0000000000
      1436        11  POPC      H4X            11.1104649690      -14.7918877258        8.1570862088  MEMB      11              0.0000000000
      1437        11  POPC      H4Y            12.4648098723      -15.8992163614        8.5725296820  MEMB      11              0.0000000000
      1438        11  POPC      C35            13.0330208050      -13.9802675997        7.6973025434  MEMB      11              0.0000000000
      1439        11  POPC      H5X            14.0843805707      -14.2371069009        7.9652819318  MEMB      11              0.0000000000
      1440        11  POPC      H5Y            12.8684866449      -12.9109525420        7.9763761013  MEMB      11              0.0000000000
      1441        11  POPC      C36            12.7267896681      -14.2062608135        6.2379758049  MEMB      11              0.0000000000
      1442        11  POPC      H6X            11.7337664506      -13.7837847867        5.9734519746  MEMB      11              0.0000000000
      1443        11  POPC      H6Y            12.6761724083      -15.2973604610        6.0536606318  MEMB      11              0.0000000000
      1444        11  POPC      C37            13.8398070801      -13.5732312101        5.4372535907  MEMB      11              0.0000000000
      1445        11  POPC      H7X            14.8079558800      -13.9737977957        5.8267635731  MEMB      11              0.0000000000
      1446        11  POPC      H7Y            13.8096551480      -12.4839908361        5.6286617439  MEMB      11              0.0000000000
      1447        11  POPC      C38            13.7544282228      -13.7766640470        3.9338813475  MEMB      11              0.0000000000
      1448        11  POPC      H8X            13.8529139091      -14.8118792487        3.6803746292  MEMB      11              0.0000000000
      1449        11  POPC      H8Y            14.6451438389      -13.3433638586        3.4625709404  MEMB      11              0.0000000000
      1450        11  POPC      C39            12.4442053864      -13.3944500139        3.2560205101  MEMB      11              0.0000000000
      1451        11  POPC      H9X            11.6388173015      -14.0916592777        3.5793514098  MEMB      11              0.0000000000
      1452        11  POPC      H9Y            12.5825861329      -13.5655027882        2.1713258112  MEMB      11              0.0000000000
      1453        11  POPC      C310           12.0289899385      -11.9604771791        3.5513710337  MEMB      11              0.0000000000
      1454        11  POPC      H10X           12.9161334809      -11.2930797303        3.4996574791  MEMB      11              0.0000000000
      1455        11  POPC      H10Y           11.6560904550      -11.9461338502        4.5983069803  MEMB      11              0.0000000000
      1456        11  POPC      C311           10.9297419456      -11.4406593358        2.6218480870  MEMB      11              0.0000000000
      1457        11  POPC      H11X           10.6576592544      -10.4110760362        2.9427702605  MEMB      11              0.0000000000
      1458        11  POPC      H11Y           10.0262915408      -12.0727502960        2.7528636173  MEMB      11              0.0000000000
      1459        11  POPC      C312           11.3174895291      -11.4140255226        1.1375396833  MEMB      11              0.0000000000
      1460        11  POPC      H12X           10.3883729842      -11.2150258800        0.5590137391  MEMB      11              0.0000000000
      1461        11  POPC      H12Y           11.6648671560      -12.4059788342        0.7846554352  MEMB      11              0.0000000000
      1462        11  POPC      C313           12.4190650479      -10.3816102679        0.8326271200  MEMB      11              0.0000000000
      1463        11  POPC      H13X           12.7434829711      -10.4798187745       -0.2252890382  MEMB      11              0.0000000000
      1464        11  POPC      H13Y           13.3069156835      -10.5736238277        1.4684352392  MEMB      11              0.0000000000
      1465        11  POPC      C314           11.9898028488       -8.9322960332        1.0055282286  MEMB      11              0.0000000000
      1466        11  POPC      H14X           12.8146164063       -8.2601788886        0.6582146600  MEMB      11              0.0000000000
      1467        11  POPC      H14Y           11.7976476281       -8.7226128092        2.0752313734  MEMB      11              0.0000000000
      1468        11  POPC      C315           10.7240675703       -8.6711912412        0.2105962955  MEMB      11              0.0000000000
      1469        11  POPC      H15X           10.6222168086       -7.5634769437        0.1205688291  MEMB      11              0.0000000000
      1470        11  POPC      H15Y            9.8194998507       -9.0604452475        0.7120475263  MEMB      11              0.0000000000
      1471        11  POPC      C316           10.7770687647       -9.2950000890       -1.1636031962  MEMB      11              0.0000000000
      1472        11  POPC      H16X           11.7797577349       -9.0113522778       -1.5556378683  MEMB      11              0.0000000000
      1473        11  POPC      H16Y            9.9452140134       -8.8602692101       -1.7686477525  MEMB      11              0.0000000000
      1474        11  POPC      H16Z           10.8550909542      -10.3697679181       -1.3709189459  MEMB      11              0.0000000000
      1475        12  POPC      N               0.0960985014      -15.4751897053       20.7868141977  MEMB      12              0.0000000000
      1476        12  POPC      C12             1.3292844836      -14.6351639902       20.4890552930  MEMB      12              0.0000000000
      1477        12  POPC      H12A            1.7586196197      -14.3276691929       21.4319076982  MEMB      12              0.0000000000
      1478        12  POPC      H12B            0.9726709027      -13.7722318109       19.9394665009  MEMB      12              0.0000000000
      1479        12  POPC      C13            -0.6352445936      -14.9648131284       21.9723609618  MEMB      12              0.0000000000
      1480        12  POPC      H13A            0.0001417399      -15.0595744477       22.8403903394  MEMB      12              0.0000000000
      1481        12  POPC      H13B           -0.9297371107      -13.9293051131       21.8453002890  MEMB      12              0.0000000000
      1482        12  POPC      H13C           -1.5244644900      -15.5675639812       22.1277722997  MEMB      12              0.0000000000
      1483        12  POPC      C14            -0.8341452016      -15.3809902051       19.6120942142  MEMB      12              0.0000000000
      1484        12  POPC      H14A           -1.2920947730      -14.3995173874       19.5748526439  MEMB      12              0.0000000000
      1485        12  POPC      H14B           -0.2847510958      -15.4772533522       18.6644298014  MEMB      12              0.0000000000
      1486        12  POPC      H14C           -1.6000090918      -16.1393209446       19.6308343439  MEMB      12              0.0000000000
      1487        12  POPC      C15             0.5427375908      -16.8762281897       21.0021839534  MEMB      12              0.0000000000
      1488        12  POPC      H15A            1.0723197598      -17.1803585125       20.0915567223  MEMB      12              0.0000000000
      1489        12  POPC      H15B           -0.2641634179      -17.5634002371       21.2100270305  MEMB      12              0.0000000000
      1490        12  POPC      H15C            1.2675684233      -16.9352588482       21.7968145214  MEMB      12              0.0000000000
      1491        12  POPC      C11             2.4984558091      -15.2456946138       19.6537044645  MEMB      12              0.0000000000
      1492        12  POPC      H11A            3.0533830578      -15.9692985446       20.2850560820  MEMB      12              0.0000000000
      1493        12  POPC      H11B            3.2376217269      -14.4435526630       19.4021969633  MEMB      12              0.0000000000
      1494        12  POPC      P               1.9380522741      -15.1904756969       17.1099116510  MEMB      12              0.0000000000
      1495        12  POPC      O13             3.0309397478      -14.2043859480       16.9911079977  MEMB      12              0.0000000000
      1496        12  POPC      O14             0.5391178132      -14.6987611535       17.0436528071  MEMB      12              0.0000000000
      1497        12  POPC      O12             2.0627874475      -15.9475918395       18.4954346553  MEMB      12              0.0000000000
      1498        12  POPC      O11             2.1319721218      -16.3475882187       16.0681902624  MEMB      12              0.0000000000
      1499        12  POPC      C1              0.9589586906      -16.8745776932       15.4716356542  MEMB      12              0.0000000000
      1500        12  POPC      HA              0.6317404533      -16.2496701148       14.6135308893  MEMB      12              0.0000000000
      1501        12  POPC      HB              0.1110075576      -16.9455693919       16.2039144005  MEMB      12              0.0000000000
      1502        12  POPC      C2              1.1251720413      -18.3105756584       14.9909000011  MEMB      12              0.0000000000
      1503        12  POPC      HS              1.4161874813      -18.9631311437       15.8582474629  MEMB      12              0.0000000000
      1504        12  POPC      O21             1.9735524160      -18.5443595341       13.8459801839  MEMB      12              0.0000000000
      1505        12  POPC      C21             3.2271795689      -18.5394723065       14.1580589630  MEMB      12              0.0000000000
      1506        12  POPC      O22             3.6889039946      -18.4383872918       15.2728430121  MEMB      12              0.0000000000
      1507        12  POPC      C22             4.0638672839      -18.8634523460       12.9585371090  MEMB      12              0.0000000000
      1508        12  POPC      H2R             3.4850243012      -19.2699751234       12.1021810741  MEMB      12              0.0000000000
      1509        12  POPC      H2S             4.7661254373      -19.6151697057       13.3696404877  MEMB      12              0.0000000000
      1510        12  POPC      C3             -0.2365207549      -18.7421861497       14.5580761762  MEMB      12              0.0000000000
      1511        12  POPC      HX             -1.0417252963      -18.6282510500       15.3161629042  MEMB      12              0.0000000000
      1512        12  POPC      HY              0.0978757629      -19.7976099162       14.4752382430  MEMB      12              0.0000000000
      1513        12  POPC      O31            -0.5363589003      -18.1707031716       13.2725978928  MEMB      12              0.0000000000
      1514        12  POPC      C31            -1.5827742644      -17.3954653651       13.1071901560  MEMB      12              0.0000000000
      1515        12  POPC      O32            -2.4218884490      -17.1404231786       13.9517675260  MEMB      12              0.0000000000
      1516        12  POPC      C32            -1.5561049667      -16.8026348207       11.6807202369  MEMB      12              0.0000000000
      1517        12  POPC      H2X            -1.6184852220      -15.7046775392       11.8332059140  MEMB      12              0.0000000000
      1518        12  POPC      H2Y            -2.4773515170      -17.1039367169       11.1411319001  MEMB      12              0.0000000000
      1519        12  POPC      C23             4.9617039121      -17.6865405689       12.6304190044  MEMB      12              0.0000000000
      1520        12  POPC      H3R             5.7899690168      -18.0026119731       11.9739542367  MEMB      12              0.0000000000
      1521        12  POPC      H3S             5.4251377160      -17.3079750664       13.5688913238  MEMB      12              0.0000000000
      1522        12  POPC      C24             4.2457612385      -16.5841171301       11.8894246762  MEMB      12              0.0000000000
      1523        12  POPC      H4R             3.4960747808      -16.9914342154       11.1897948122  MEMB      12              0.0000000000
      1524        12  POPC      H4S             5.0149662483      -16.0786445297       11.2658335590  MEMB      12              0.0000000000
      1525        12  POPC      C25             3.6400334710      -15.5652588035       12.8506748496  MEMB      12              0.0000000000
      1526        12  POPC      H5R             4.3959154131      -15.3449610462       13.6410172448  MEMB      12              0.0000000000
      1527        12  POPC      H5S             2.7428762421      -15.9663708260       13.3684447504  MEMB      12              0.0000000000
      1528        12  POPC      C26             3.3174867456      -14.2880087151       12.0930465788  MEMB      12              0.0000000000
      1529        12  POPC      H6R             4.1425206698      -14.1362987898       11.3632706300  MEMB      12              0.0000000000
      1530        12  POPC      H6S             3.3069708683      -13.4101465464       12.7754973743  MEMB      12              0.0000000000
      1531        12  POPC      C27             1.9752864493      -14.3599583163       11.3615381943  MEMB      12              0.0000000000
      1532        12  POPC      H7R             1.1597635267      -14.3877390850       12.1208977182  MEMB      12              0.0000000000
      1533        12  POPC      H7S             1.9084459072      -15.3025077866       10.7743591550  MEMB      12              0.0000000000
      1534        12  POPC      C28             1.8010419033      -13.1507101546       10.4403374603  MEMB      12              0.0000000000
      1535        12  POPC      H8R             2.1397741203      -12.2567103283       11.0057166572  MEMB      12              0.0000000000
      1536        12  POPC      H8S             0.7250254195      -12.9935398221       10.2196386201  MEMB      12              0.0000000000
      1537        12  POPC      C29             2.6324533181      -13.3398256267        9.1962089353  MEMB      12              0.0000000000
      1538        12  POPC      H91             3.7139410029      -13.2055600098        9.3472062412  MEMB      12              0.0000000000
      1539        12  POPC      C210            2.1867670689      -13.5367169650        7.9451757944  MEMB      12              0.0000000000
      1540        12  POPC      H101            2.9278667703      -13.6617360248        7.1415875446  MEMB      12              0.0000000000
      1541        12  POPC      C211            0.7462178221      -13.6105194193        7.5142839900  MEMB      12              0.0000000000
      1542        12  POPC      H11R            0.5137260233      -12.7246866535        6.8816037305  MEMB      12              0.0000000000
      1543        12  POPC      H11S            0.0459201749      -13.6003614652        8.3765909439  MEMB      12              0.0000000000
      1544        12  POPC      C212            0.3895263371      -14.8672302883        6.7223764236  MEMB      12              0.0000000000
      1545        12  POPC      H12R            0.5166358656      -15.7769865520        7.3506343563  MEMB      12              0.0000000000
      1546        12  POPC      H12S            1.0551078885      -14.9567336996        5.8402007622  MEMB      12              0.0000000000
      1547        12  POPC      C213           -1.0522507269      -14.8259658229        6.2376445993  MEMB      12              0.0000000000
      1548        12  POPC      H13R           -1.2756967447      -13.8654144549        5.7179079073  MEMB      12              0.0000000000
      1549        12  POPC      H13S           -1.7674571835      -14.9276131112        7.0824357504  MEMB      12              0.0000000000
      1550        12  POPC      C214           -1.3105933502      -15.9557362460        5.2785810815  MEMB      12              0.0000000000
      1551        12  POPC      H14R           -0.9486940223      -16.9315942409        5.6830139959  MEMB      12              0.0000000000
      1552        12  POPC      H14S           -0.6892179461      -15.7791379255        4.3774785118  MEMB      12              0.0000000000
      1553        12  POPC      C215           -2.8138646238      -16.0088466131        5.0041056749  MEMB      12              0.0000000000
      1554        12  POPC      H15R           -3.2505482868      -15.0496721860        4.6735818301  MEMB      12              0.0000000000
      1555        12  POPC      H15S           -3.3269274251      -16.4031459503        5.9150985745  MEMB      12              0.0000000000
      1556        12  POPC      C216           -3.0601448639      -16.9302708035        3.8632363694  MEMB      12              0.0000000000
      1557        12  POPC      H16R           -4.1153053411      -17.2750771215        3.8388356620  MEMB      12              0.0000000000
      1558        12  POPC      H16S           -2.3810846969      -17.6715106365        4.2566775495  MEMB      12              0.0000000000
      1559        12  POPC      C217           -2.5008400234      -16.3937417679        2.5675939189  MEMB      12              0.0000000000
      1560        12  POPC      H17R           -1.4441325164      -16.1133329252        2.7077922184  MEMB      12              0.0000000000
      1561        12  POPC      H17S           -3.2098287069      -15.6422051194        2.1807087485  MEMB      12              0.0000000000
      1562        12  POPC      C218           -2.2722035714      -17.3186025827        1.4712779897  MEMB      12              0.0000000000
      1563        12  POPC      H18R           -1.7228034856      -17.0282125759        0.5673461258  MEMB      12              0.0000000000
      1564        12  POPC      H18S           -3.2598776378      -17.5144168062        1.0413039198  MEMB      12              0.0000000000
      1565        12  POPC      H18T           -1.8088834408      -18.2227894922        1.9369313759  MEMB      12              0.0000000000
      1566        12  POPC      C33            -0.2580587886      -17.0807687253       10.8405997679  MEMB      12              0.0000000000
      1567        12  POPC      H3X             0.6508660119      -16.8870374831       11.4401667275  MEMB      12              0.0000000000
      1568        12  POPC      H3Y            -0.3003711197      -16.4154504777        9.9471797636  MEMB      12              0.0000000000
      1569        12  POPC      C34            -0.0894539620      -18.5151298832       10.3508864370  MEMB      12              0.0000000000
      1570        12  POPC      H4X            -1.1023650011      -18.8071060067       10.3629076777  MEMB      12              0.0000000000
      1571        12  POPC      H4Y             0.3670123229      -19.2074219200       11.0834924536  MEMB      12              0.0000000000
      1572        12  POPC      C35             0.6303648383      -18.7974024771        9.0485690377  MEMB      12              0.0000000000
      1573        12  POPC      H5X             0.4257338285      -18.0425982141        8.2660225128  MEMB      12              0.0000000000
      1574        12  POPC      H5Y             0.3903154865      -19.7687696681        8.5619596387  MEMB      12              0.0000000000
      1575        12  POPC      C36             2.0697883966      -18.9670104986        9.4775920166  MEMB      12              0.0000000000
      1576        12  POPC      H6X             2.1783162462      -19.8779171059       10.1095314317  MEMB      12              0.0000000000
      1577        12  POPC      H6Y             2.3143560707      -18.0886512783       10.1055715059  MEMB      12              0.0000000000
      1578        12  POPC      C37             2.9385998714      -19.0287375866        8.2619800821  MEMB      12              0.0000000000
      1579        12  POPC      H7X             2.3838894969      -19.5769027821        7.4630589521  MEMB      12              0.0000000000
      1580        12  POPC      H7Y             3.8681335476      -19.5917039309        8.4635504190  MEMB      12              0.0000000000
      1581        12  POPC      C38             3.2301100020      -17.5948967933        7.8304739826  MEMB      12              0.0000000000
      1582        12  POPC      H8X             4.0951035454      -17.2107543887        8.4230756064  MEMB      12              0.0000000000
      1583        12  POPC      H8Y             2.3443678246      -16.9492791199        7.9789476880  MEMB      12              0.0000000000
      1584        12  POPC      C39             3.5030678393      -17.5682007644        6.3600376438  MEMB      12              0.0000000000
      1585        12  POPC      H9X             2.6951586938      -18.0131708014        5.7510926861  MEMB      12              0.0000000000
      1586        12  POPC      H9Y             4.2140790142      -18.3796889136        6.3296511916  MEMB      12              0.0000000000
      1587        12  POPC      C310            3.9012281615      -16.2129766956        5.7681622630  MEMB      12              0.0000000000
      1588        12  POPC      H10X            4.9607636352      -16.1519184773        5.4945207069  MEMB      12              0.0000000000
      1589        12  POPC      H10Y            3.7444802609      -15.4039821635        6.4982642102  MEMB      12              0.0000000000
      1590        12  POPC      C311            3.1248653732      -15.9731546599        4.4788824701  MEMB      12              0.0000000000
      1591        12  POPC      H11X            2.0646454648      -16.2527708612        4.5991337151  MEMB      12              0.0000000000
      1592        12  POPC      H11Y            3.4862603128      -16.7344202200        3.7897402875  MEMB      12              0.0000000000
      1593        12  POPC      C312            3.2522578873      -14.5684282939        3.8879987763  MEMB      12              0.0000000000
      1594        12  POPC      H12X            4.2947378528      -14.1844362578        3.9557922379  MEMB      12              0.0000000000
      1595        12  POPC      H12Y            2.6060377447      -13.8927279131        4.4885190642  MEMB      12              0.0000000000
      1596        12  POPC      C313            2.8688546140      -14.5347964238        2.4011034991  MEMB      12              0.0000000000
      1597        12  POPC      H13X            3.5956582794      -15.1843475145        1.8681664909  MEMB      12              0.0000000000
      1598        12  POPC      H13Y            3.0125595673      -13.5049925335        2.0131091676  MEMB      12              0.0000000000
      1599        12  POPC      C314            1.4662695226      -15.0874863452        2.0946613611  MEMB      12              0.0000000000
      1600        12  POPC      H14X            0.7575855237      -14.7915457739        2.9005866744  MEMB      12              0.0000000000
      1601        12  POPC      H14Y            1.5409594657      -16.1987635352        2.0873097881  MEMB      12              0.0000000000
      1602        12  POPC      C315            0.8388780633      -14.6200455382        0.7705553004  MEMB      12              0.0000000000
      1603        12  POPC      H15X            0.4227062503      -13.6010250535        0.9400512875  MEMB      12              0.0000000000
      1604        12  POPC      H15Y           -0.0277235572      -15.2861611356        0.5537261624  MEMB      12              0.0000000000
      1605        12  POPC      C316            1.7722875862      -14.5792803994       -0.4443070049  MEMB      12              0.0000000000
      1606        12  POPC      H16X            1.2880641293      -14.0236956979       -1.2771569715  MEMB      12              0.0000000000
      1607        12  POPC      H16Y            2.0242700196      -15.5999616703       -0.8000987675  MEMB      12              0.0000000000
      1608        12  POPC      H16Z            2.7192972898      -14.0561593130       -0.1961146189  MEMB      12              0.0000000000
      1609        13  POPC      N             -12.1012004558      -10.2415971106       20.2729402414  MEMB      13              0.0000000000
      1610        13  POPC      C12           -12.3356563255      -10.2335513484       18.7714886184  MEMB      13              0.0000000000
      1611        13  POPC      H12A          -11.4356968467      -10.5915980422       18.2931421910  MEMB      13              0.0000000000
      1612        13  POPC      H12B          -12.4894100637       -9.2135993488       18.4400731767  MEMB      13              0.0000000000
      1613        13  POPC      C13           -11.2919446123      -11.4456310964       20.6405168212  MEMB      13              0.0000000000
      1614        13  POPC      H13A          -11.9090803522      -12.3356353016       20.5068486001  MEMB      13              0.0000000000
      1615        13  POPC      H13B          -10.4494530777      -11.5502806702       19.9785097795  MEMB      13              0.0000000000
      1616        13  POPC      H13C          -10.9455270030      -11.3704714992       21.6633890052  MEMB      13              0.0000000000
      1617        13  POPC      C14           -11.3041814822       -9.0493379514       20.6373526969  MEMB      13              0.0000000000
      1618        13  POPC      H14A          -11.8908939215       -8.1568786321       20.4868628416  MEMB      13              0.0000000000
      1619        13  POPC      H14B          -11.0244996337       -9.1211229927       21.6819620106  MEMB      13              0.0000000000
      1620        13  POPC      H14C          -10.4105453269       -8.9959065192       20.0226197127  MEMB      13              0.0000000000
      1621        13  POPC      C15           -13.3930555365      -10.2878463793       21.0526916661  MEMB      13              0.0000000000
      1622        13  POPC      H15A          -13.8768479312      -11.2614737322       20.9313694889  MEMB      13              0.0000000000
      1623        13  POPC      H15B          -14.1181719472       -9.5597476992       20.7333349471  MEMB      13              0.0000000000
      1624        13  POPC      H15C          -13.2518736084      -10.1779146486       22.1266886868  MEMB      13              0.0000000000
      1625        13  POPC      C11           -13.4858788477      -11.0495393958       18.1586033329  MEMB      13              0.0000000000
      1626        13  POPC      H11A          -13.2780524815      -11.0941013557       17.0570215336  MEMB      13              0.0000000000
      1627        13  POPC      H11B          -14.4439121565      -10.4981560743       18.3056244270  MEMB      13              0.0000000000
      1628        13  POPC      P             -14.5059622771      -13.3323652327       17.8817320204  MEMB      13              0.0000000000
      1629        13  POPC      O13           -15.6305100958      -12.5588103260       17.3027940128  MEMB      13              0.0000000000
      1630        13  POPC      O14           -14.8653732818      -14.5065723456       18.7072898393  MEMB      13              0.0000000000
      1631        13  POPC      O12           -13.5763570292      -12.3580551399       18.7192540930  MEMB      13              0.0000000000
      1632        13  POPC      O11           -13.5020512447      -13.7591545326       16.7347462534  MEMB      13              0.0000000000
      1633        13  POPC      C1            -13.4187307035      -15.0889528827       16.2317070054  MEMB      13              0.0000000000
      1634        13  POPC      HA            -13.5332120961      -15.0602426912       15.1271436225  MEMB      13              0.0000000000
      1635        13  POPC      HB            -14.2454647693      -15.7345490673       16.5990149636  MEMB      13              0.0000000000
      1636        13  POPC      C2            -12.0428655974      -15.7528975147       16.5442650297  MEMB      13              0.0000000000
      1637        13  POPC      HS            -12.0106607672      -15.9593941604       17.6479746003  MEMB      13              0.0000000000
      1638        13  POPC      O21           -10.9892681226      -14.9905700284       16.0936798000  MEMB      13              0.0000000000
      1639        13  POPC      C21           -10.5451854753      -14.2186647539       16.9840759377  MEMB      13              0.0000000000
      1640        13  POPC      O22           -10.6532347743      -14.2418040367       18.1998253994  MEMB      13              0.0000000000
      1641        13  POPC      C22            -9.6600274353      -13.3564749006       16.2391105027  MEMB      13              0.0000000000
      1642        13  POPC      H2R            -9.2219467804      -13.8615306345       15.3392078535  MEMB      13              0.0000000000
      1643        13  POPC      H2S            -8.8031941171      -13.1291342228       16.9138044376  MEMB      13              0.0000000000
      1644        13  POPC      C3            -11.8576977606      -17.0657285373       15.8468793671  MEMB      13              0.0000000000
      1645        13  POPC      HX            -12.7261040069      -17.3452447555       16.3644778987  MEMB      13              0.0000000000
      1646        13  POPC      HY            -11.0600124264      -17.7881159525       16.1177710101  MEMB      13              0.0000000000
      1647        13  POPC      O31           -12.2353111019      -17.0890485385       14.4868275209  MEMB      13              0.0000000000
      1648        13  POPC      C31           -11.1872399542      -17.0324208637       13.7055416594  MEMB      13              0.0000000000
      1649        13  POPC      O32           -10.0187608213      -17.0870016196       14.0449093354  MEMB      13              0.0000000000
      1650        13  POPC      C32           -11.7241176512      -16.9190892301       12.3256171558  MEMB      13              0.0000000000
      1651        13  POPC      H2X           -12.3483497506      -17.8289158786       12.1647635221  MEMB      13              0.0000000000
      1652        13  POPC      H2Y           -10.8948121725      -16.9237775517       11.5980194812  MEMB      13              0.0000000000
      1653        13  POPC      C23           -10.5536100715      -12.1351952647       15.9308210575  MEMB      13              0.0000000000
      1654        13  POPC      H3R            -9.7341961226      -11.4950571829       16.0177046392  MEMB      13              0.0000000000
      1655        13  POPC      H3S           -10.9676254044      -11.5153001108       16.7249754164  MEMB      13              0.0000000000
      1656        13  POPC      C24           -11.3060299489      -12.0749530390       14.5445769568  MEMB      13              0.0000000000
      1657        13  POPC      H4R           -12.3219870584      -12.4173036157       14.8120981108  MEMB      13              0.0000000000
      1658        13  POPC      H4S           -10.8580079100      -12.8034427950       13.8237917996  MEMB      13              0.0000000000
      1659        13  POPC      C25           -11.4714789768      -10.7169287384       13.7513267699  MEMB      13              0.0000000000
      1660        13  POPC      H5R           -10.5472691034      -10.1012131156       13.7195225923  MEMB      13              0.0000000000
      1661        13  POPC      H5S           -12.2219401831      -10.0970630291       14.2714856664  MEMB      13              0.0000000000
      1662        13  POPC      C26           -11.9263058366      -10.8010661883       12.2583159966  MEMB      13              0.0000000000
      1663        13  POPC      H6R           -12.6868033327      -11.5794360279       12.1219867769  MEMB      13              0.0000000000
      1664        13  POPC      H6S           -11.2114104786      -11.1875059329       11.5391151097  MEMB      13              0.0000000000
      1665        13  POPC      C27           -12.2822311385       -9.4250561228       11.6584462572  MEMB      13              0.0000000000
      1666        13  POPC      H7R           -11.6435972087       -8.5853961820       11.9979457854  MEMB      13              0.0000000000
      1667        13  POPC      H7S           -13.2357981961       -9.1802500803       12.1575042133  MEMB      13              0.0000000000
      1668        13  POPC      C28           -12.4154305286       -9.4119205254       10.0857897058  MEMB      13              0.0000000000
      1669        13  POPC      H8R           -12.9817227681       -8.4811096355        9.9024409751  MEMB      13              0.0000000000
      1670        13  POPC      H8S           -13.0334661112      -10.3118322621        9.8966268927  MEMB      13              0.0000000000
      1671        13  POPC      C29           -11.2861535471       -9.3422079798        9.0606397990  MEMB      13              0.0000000000
      1672        13  POPC      H91           -10.6531202870       -8.4470724331        9.1618133643  MEMB      13              0.0000000000
      1673        13  POPC      C210          -10.8781337293      -10.2616184718        8.1471485241  MEMB      13              0.0000000000
      1674        13  POPC      H101           -9.8060012941      -10.2123085413        7.8639117359  MEMB      13              0.0000000000
      1675        13  POPC      C211          -11.4930988105      -11.6230412095        7.9329625535  MEMB      13              0.0000000000
      1676        13  POPC      H11R          -11.5433830417      -11.8064203922        6.8409499781  MEMB      13              0.0000000000
      1677        13  POPC      H11S          -12.5447952621      -11.5743771866        8.2800882843  MEMB      13              0.0000000000
      1678        13  POPC      C212          -10.8790673732      -12.8952537489        8.5898403050  MEMB      13              0.0000000000
      1679        13  POPC      H12R          -11.5830807070      -13.7414709404        8.4196171147  MEMB      13              0.0000000000
      1680        13  POPC      H12S          -10.8323005486      -12.7843155790        9.6943999909  MEMB      13              0.0000000000
      1681        13  POPC      C213           -9.4712574583      -13.3102460702        8.1206029726  MEMB      13              0.0000000000
      1682        13  POPC      H13R           -9.3073561283      -14.3940560905        8.3217537738  MEMB      13              0.0000000000
      1683        13  POPC      H13S           -8.7403425946      -12.7514308854        8.7464905527  MEMB      13              0.0000000000
      1684        13  POPC      C214           -9.1025371123      -13.0046643449        6.6672629410  MEMB      13              0.0000000000
      1685        13  POPC      H14R           -8.9748833836      -11.9012483725        6.5783680065  MEMB      13              0.0000000000
      1686        13  POPC      H14S           -9.9011527614      -13.3056680657        5.9535035198  MEMB      13              0.0000000000
      1687        13  POPC      C215           -7.7888218679      -13.7010347294        6.2855540603  MEMB      13              0.0000000000
      1688        13  POPC      H15R           -7.9952782601      -14.7737601765        6.0466167568  MEMB      13              0.0000000000
      1689        13  POPC      H15S           -7.0430814790      -13.6450108346        7.1006518275  MEMB      13              0.0000000000
      1690        13  POPC      C216           -7.1824751616      -13.1103140770        5.0489902918  MEMB      13              0.0000000000
      1691        13  POPC      H16R           -6.1832412379      -13.5618553427        4.8194736326  MEMB      13              0.0000000000
      1692        13  POPC      H16S           -7.0632838994      -12.0050098346        5.0753176981  MEMB      13              0.0000000000
      1693        13  POPC      C217           -8.0913647082      -13.4814651892        3.9463139636  MEMB      13              0.0000000000
      1694        13  POPC      H17R           -9.1243766525      -13.0639047608        3.9425400250  MEMB      13              0.0000000000
      1695        13  POPC      H17S           -8.1940220269      -14.6041174957        3.8889314040  MEMB      13              0.0000000000
      1696        13  POPC      C218           -7.4286026448      -12.9857344178        2.7541684379  MEMB      13              0.0000000000
      1697        13  POPC      H18R           -6.3364356229      -13.0779372687        2.5918722883  MEMB      13              0.0000000000
      1698        13  POPC      H18S           -7.8319789814      -12.0394290090        2.3203059924  MEMB      13              0.0000000000
      1699        13  POPC      H18T           -7.8255584193      -13.8550188225        2.1994544874  MEMB      13              0.0000000000
      1700        13  POPC      C33           -12.5402447194      -15.6140465043       12.2752554364  MEMB      13              0.0000000000
      1701        13  POPC      H3X           -11.9717706348      -14.7227349436       12.6103960179  MEMB      13              0.0000000000
      1702        13  POPC      H3Y           -13.4209234889      -15.7106478118       12.9575661848  MEMB      13              0.0000000000
      1703        13  POPC      C34           -13.0319301303      -15.3612407747       10.8764436532  MEMB      13              0.0000000000
      1704        13  POPC      H4X           -12.2604257485      -15.5890894128       10.1122130223  MEMB      13              0.0000000000
      1705        13  POPC      H4Y           -13.4237004462      -14.3257706218       10.7329554547  MEMB      13              0.0000000000
      1706        13  POPC      C35           -14.1827225803      -16.2829339490       10.6925322664  MEMB      13              0.0000000000
      1707        13  POPC      H5X           -13.9572416782      -17.2882247618       11.1024360255  MEMB      13              0.0000000000
      1708        13  POPC      H5Y           -14.2161895183      -16.5053243775        9.6178778316  MEMB      13              0.0000000000
      1709        13  POPC      C36           -15.4009447263      -15.5984239010       11.3441138105  MEMB      13              0.0000000000
      1710        13  POPC      H6X           -15.2438595587      -15.1485570649       12.3338358536  MEMB      13              0.0000000000
      1711        13  POPC      H6Y           -16.0084090595      -16.3296770144       11.8227648359  MEMB      13              0.0000000000
      1712        13  POPC      C37           -16.2072259230      -14.6891451028       10.4083282740  MEMB      13              0.0000000000
      1713        13  POPC      H7X           -15.9278476667      -13.6445005176       10.5198596576  MEMB      13              0.0000000000
      1714        13  POPC      H7Y           -17.2948269428      -14.7418695743       10.6454056887  MEMB      13              0.0000000000
      1715        13  POPC      C38           -16.0815048896      -14.9846385227        8.9297442864  MEMB      13              0.0000000000
      1716        13  POPC      H8X           -17.1293012323      -14.8690863855        8.5752329734  MEMB      13              0.0000000000
      1717        13  POPC      H8Y           -15.6731768119      -15.9836242856        8.7223600877  MEMB      13              0.0000000000
      1718        13  POPC      C39           -15.3738995044      -14.2011838559        7.9077429321  MEMB      13              0.0000000000
      1719        13  POPC      H9X           -15.1217355078      -14.9491762317        7.1027743065  MEMB      13              0.0000000000
      1720        13  POPC      H9Y           -14.3830182584      -13.9555967941        8.2815973166  MEMB      13              0.0000000000
      1721        13  POPC      C310          -16.3722172069      -13.1048403617        7.4735527070  MEMB      13              0.0000000000
      1722        13  POPC      H10X          -16.7789757340      -12.6699634929        8.4041425042  MEMB      13              0.0000000000
      1723        13  POPC      H10Y          -17.3192716397      -13.4016802314        6.9466603225  MEMB      13              0.0000000000
      1724        13  POPC      C311          -15.6529689355      -12.1656627894        6.5579350366  MEMB      13              0.0000000000
      1725        13  POPC      H11X          -14.6866792154      -11.9869123021        7.0755514603  MEMB      13              0.0000000000
      1726        13  POPC      H11Y          -16.2497962404      -11.2371594032        6.4754222055  MEMB      13              0.0000000000
      1727        13  POPC      C312          -15.4032606741      -12.7613008129        5.1707407922  MEMB      13              0.0000000000
      1728        13  POPC      H12X          -16.3763673669      -13.0870193278        4.7379908883  MEMB      13              0.0000000000
      1729        13  POPC      H12Y          -14.7283128589      -13.6456029148        5.2659828695  MEMB      13              0.0000000000
      1730        13  POPC      C313          -14.8280370380      -11.7587829098        4.1805783866  MEMB      13              0.0000000000
      1731        13  POPC      H13X          -13.9782549770      -11.2308095455        4.6670822337  MEMB      13              0.0000000000
      1732        13  POPC      H13Y          -15.6232849089      -11.0120465862        3.9592072439  MEMB      13              0.0000000000
      1733        13  POPC      C314          -14.3900221770      -12.4004237890        2.8591196712  MEMB      13              0.0000000000
      1734        13  POPC      H14X          -14.1152051382      -11.5709438715        2.1665730547  MEMB      13              0.0000000000
      1735        13  POPC      H14Y          -15.2318077993      -12.9376839832        2.3765276257  MEMB      13              0.0000000000
      1736        13  POPC      C315          -13.2247172245      -13.3885167295        3.0161073018  MEMB      13              0.0000000000
      1737        13  POPC      H15X          -13.5042075664      -14.3321199250        3.5126685081  MEMB      13              0.0000000000
      1738        13  POPC      H15Y          -12.4725618825      -12.9124009096        3.6778338355  MEMB      13              0.0000000000
      1739        13  POPC      C316          -12.6026100122      -13.7102489682        1.6784968452  MEMB      13              0.0000000000
      1740        13  POPC      H16X          -12.5904496592      -12.7468878544        1.1902939992  MEMB      13              0.0000000000
      1741        13  POPC      H16Y          -13.1908185927      -14.3324040935        0.9769474898  MEMB      13              0.0000000000
      1742        13  POPC      H16Z          -11.5491850386      -14.0368689695        1.7396082086  MEMB      13              0.0000000000
      1743        14  POPC      N              -7.9076244508       17.9341081853       17.6795777019  MEMB      14              0.0000000000
      1744        14  POPC      C12            -7.8157496335       16.4310696853       17.8762901849  MEMB      14              0.0000000000
      1745        14  POPC      H12A           -6.8217819306       16.0766895484       17.6014273810  MEMB      14              0.0000000000
      1746        14  POPC      H12B           -8.5294399378       15.9550915661       17.2108526312  MEMB      14              0.0000000000
      1747        14  POPC      C13            -6.8451901768       18.6264807556       18.4524051100  MEMB      14              0.0000000000
      1748        14  POPC      H13A           -5.8656916958       18.3199122990       18.0884985343  MEMB      14              0.0000000000
      1749        14  POPC      H13B           -6.9525110678       19.7007957396       18.3777361047  MEMB      14              0.0000000000
      1750        14  POPC      H13C           -6.8941392363       18.2878287910       19.4863993436  MEMB      14              0.0000000000
      1751        14  POPC      C14            -7.7125910534       18.2917477754       16.2385980501  MEMB      14              0.0000000000
      1752        14  POPC      H14A           -8.3782234289       17.7370648734       15.5893791596  MEMB      14              0.0000000000
      1753        14  POPC      H14B           -7.9232689665       19.3472886108       16.0900100602  MEMB      14              0.0000000000
      1754        14  POPC      H14C           -6.6803651156       18.1563760561       15.9277483911  MEMB      14              0.0000000000
      1755        14  POPC      C15            -9.2279165595       18.3910938107       18.2163017061  MEMB      14              0.0000000000
      1756        14  POPC      H15A           -9.3693197143       18.1233798698       19.2601048371  MEMB      14              0.0000000000
      1757        14  POPC      H15B          -10.0519847932       17.9752679426       17.6419682717  MEMB      14              0.0000000000
      1758        14  POPC      H15C           -9.3171433739       19.4677818202       18.1426521933  MEMB      14              0.0000000000
      1759        14  POPC      C11            -8.1529933023       15.8802696397       19.2948465156  MEMB      14              0.0000000000
      1760        14  POPC      H11A           -8.3601947709       14.7891776696       19.1954746937  MEMB      14              0.0000000000
      1761        14  POPC      H11B           -9.0879436353       16.3286913976       19.6732051645  MEMB      14              0.0000000000
      1762        14  POPC      P              -5.9864319085       15.1364143724       20.5220061020  MEMB      14              0.0000000000
      1763        14  POPC      O13            -6.3899980207       13.7008898836       20.4906566828  MEMB      14              0.0000000000
      1764        14  POPC      O14            -5.1204854977       15.5854543238       21.6417368526  MEMB      14              0.0000000000
      1765        14  POPC      O12            -7.1715688262       16.1487113183       20.2876815851  MEMB      14              0.0000000000
      1766        14  POPC      O11            -5.2942011359       15.5342159707       19.1560511980  MEMB      14              0.0000000000
      1767        14  POPC      C1             -3.9903872275       16.1209127481       19.3094431739  MEMB      14              0.0000000000
      1768        14  POPC      HA             -3.3670902595       15.4793705432       20.0283432544  MEMB      14              0.0000000000
      1769        14  POPC      HB             -3.9927808155       17.1407013385       19.6635956456  MEMB      14              0.0000000000
      1770        14  POPC      C2             -3.2751086322       16.2397906711       17.9895763513  MEMB      14              0.0000000000
      1771        14  POPC      HS             -2.2481794140       16.7151617172       18.0159851960  MEMB      14              0.0000000000
      1772        14  POPC      O21            -3.9834901892       16.7347181844       16.8052260614  MEMB      14              0.0000000000
      1773        14  POPC      C21            -3.2913551339       17.0858973157       15.6779818329  MEMB      14              0.0000000000
      1774        14  POPC      O22            -2.2034605070       16.6760918322       15.3367414870  MEMB      14              0.0000000000
      1775        14  POPC      C22            -4.2582380543       17.9353626936       14.8645011087  MEMB      14              0.0000000000
      1776        14  POPC      H2R            -4.6035440860       18.7285354590       15.5529309518  MEMB      14              0.0000000000
      1777        14  POPC      H2S            -5.1000157594       17.2901206107       14.5436128020  MEMB      14              0.0000000000
      1778        14  POPC      C3             -3.0635174279       14.7389874845       18.1762778582  MEMB      14              0.0000000000
      1779        14  POPC      HX             -2.0895391435       14.6266257015       18.7457849349  MEMB      14              0.0000000000
      1780        14  POPC      HY             -2.3977667660       14.9823761629       17.2850651538  MEMB      14              0.0000000000
      1781        14  POPC      O31            -4.2061347969       13.5324554180       18.2804388031  MEMB      14              0.0000000000
      1782        14  POPC      C31            -4.6720246990       12.2378062700       17.6136262851  MEMB      14              0.0000000000
      1783        14  POPC      O32            -3.9888978951       11.3432991458       17.2469336912  MEMB      14              0.0000000000
      1784        14  POPC      C32            -6.0950279233       12.0234569378       16.9252087826  MEMB      14              0.0000000000
      1785        14  POPC      H2X            -6.5539905300       11.4672174197       17.7560044128  MEMB      14              0.0000000000
      1786        14  POPC      H2Y            -5.9341320683       11.2133847167       16.1425823701  MEMB      14              0.0000000000
      1787        14  POPC      C23            -3.6922222767       18.6180588270       13.6246684665  MEMB      14              0.0000000000
      1788        14  POPC      H3R            -3.4502400622       17.8139946236       12.8967323591  MEMB      14              0.0000000000
      1789        14  POPC      H3S            -2.7830945152       19.1863798884       13.9084142382  MEMB      14              0.0000000000
      1790        14  POPC      C24            -4.6622526790       19.6588387035       13.0656289938  MEMB      14              0.0000000000
      1791        14  POPC      H4R            -4.5671007130       20.5703850351       13.6972143151  MEMB      14              0.0000000000
      1792        14  POPC      H4S            -5.7021696617       19.2709598635       13.0760533442  MEMB      14              0.0000000000
      1793        14  POPC      C25            -4.3579813504       20.0543484137       11.6474214571  MEMB      14              0.0000000000
      1794        14  POPC      H5R            -3.2476015001       20.2161316328       11.5841939223  MEMB      14              0.0000000000
      1795        14  POPC      H5S            -4.8062835282       21.0284743635       11.3615030435  MEMB      14              0.0000000000
      1796        14  POPC      C26            -4.9444088520       19.0186975234       10.6608202783  MEMB      14              0.0000000000
      1797        14  POPC      H6R            -6.0163136380       18.8420539452       10.6886548732  MEMB      14              0.0000000000
      1798        14  POPC      H6S            -4.5162511158       18.0012857067       10.8336463601  MEMB      14              0.0000000000
      1799        14  POPC      C27            -4.5113601535       19.3977298279        9.2695966731  MEMB      14              0.0000000000
      1800        14  POPC      H7R            -4.4669330820       18.5258622973        8.5950868303  MEMB      14              0.0000000000
      1801        14  POPC      H7S            -3.5477861101       19.6767197561        9.7206407073  MEMB      14              0.0000000000
      1802        14  POPC      C28            -4.9467982171       20.5835373459        8.4162248815  MEMB      14              0.0000000000
      1803        14  POPC      H8R            -4.5769442506       20.4231858240        7.3740820416  MEMB      14              0.0000000000
      1804        14  POPC      H8S            -4.4944578004       21.5302405795        8.7838487449  MEMB      14              0.0000000000
      1805        14  POPC      C29            -6.4255522570       20.4988112338        8.5180958403  MEMB      14              0.0000000000
      1806        14  POPC      H91            -6.7477374265       20.5215545530        9.5651348456  MEMB      14              0.0000000000
      1807        14  POPC      C210           -7.3432317088       20.2846245771        7.5628321536  MEMB      14              0.0000000000
      1808        14  POPC      H101           -8.3827879663       20.2203478011        7.9005649161  MEMB      14              0.0000000000
      1809        14  POPC      C211           -7.1637678094       20.0698131405        6.0785901728  MEMB      14              0.0000000000
      1810        14  POPC      H11R           -6.4443983166       20.8031854081        5.6531612897  MEMB      14              0.0000000000
      1811        14  POPC      H11S           -8.1329366432       20.2718219014        5.5683278965  MEMB      14              0.0000000000
      1812        14  POPC      C212           -6.7772451315       18.6304392125        5.6808291891  MEMB      14              0.0000000000
      1813        14  POPC      H12R           -7.7007743656       18.0448671461        5.4824588647  MEMB      14              0.0000000000
      1814        14  POPC      H12S           -6.2203514190       18.1190149121        6.5020396875  MEMB      14              0.0000000000
      1815        14  POPC      C213           -5.9559409017       18.5598060231        4.3903191239  MEMB      14              0.0000000000
      1816        14  POPC      H13R           -6.4965433603       19.0037110361        3.5349386561  MEMB      14              0.0000000000
      1817        14  POPC      H13S           -5.7543329876       17.4966204704        4.1666802767  MEMB      14              0.0000000000
      1818        14  POPC      C214           -4.5741723065       19.1249189595        4.5758711505  MEMB      14              0.0000000000
      1819        14  POPC      H14R           -4.3088389098       18.6958196113        5.5456208989  MEMB      14              0.0000000000
      1820        14  POPC      H14S           -4.5488117340       20.2298656072        4.7438839250  MEMB      14              0.0000000000
      1821        14  POPC      C215           -3.5132933285       18.5297777253        3.6088301863  MEMB      14              0.0000000000
      1822        14  POPC      H15R           -3.4032477759       17.4503097607        3.4995611960  MEMB      14              0.0000000000
      1823        14  POPC      H15S           -2.7179371902       19.0513046047        3.9660722716  MEMB      14              0.0000000000
      1824        14  POPC      C216           -3.1620270686       19.3347030738        2.3998550740  MEMB      14              0.0000000000
      1825        14  POPC      H16R           -3.4553931468       20.2441284403        2.9478356350  MEMB      14              0.0000000000
      1826        14  POPC      H16S           -3.9509893031       18.7460693719        1.9825809792  MEMB      14              0.0000000000
      1827        14  POPC      C217           -2.0575889958       19.6210281161        1.2177528580  MEMB      14              0.0000000000
      1828        14  POPC      H17R           -1.9278528558       18.5870304525        0.8928921905  MEMB      14              0.0000000000
      1829        14  POPC      H17S           -1.2691378958       20.1045136171        1.8108673342  MEMB      14              0.0000000000
      1830        14  POPC      C218           -2.1645224141       20.4714383191       -0.2062927469  MEMB      14              0.0000000000
      1831        14  POPC      H18R           -2.8058293159       20.0307121658       -0.9836420112  MEMB      14              0.0000000000
      1832        14  POPC      H18S           -1.2731663237       20.8879799174       -0.6313914838  MEMB      14              0.0000000000
      1833        14  POPC      H18T           -2.7053534595       21.4240981536       -0.2794042458  MEMB      14              0.0000000000
      1834        14  POPC      C33            -7.0654186927       13.1532246867       16.2774603975  MEMB      14              0.0000000000
      1835        14  POPC      H3X            -6.8025460637       14.0919943651       16.7819317105  MEMB      14              0.0000000000
      1836        14  POPC      H3Y            -8.0643569440       12.7311725910       16.5012586169  MEMB      14              0.0000000000
      1837        14  POPC      C34            -7.4376231861       13.4099230098       14.7389392939  MEMB      14              0.0000000000
      1838        14  POPC      H4X            -7.4863783095       12.4842175241       14.1446852197  MEMB      14              0.0000000000
      1839        14  POPC      H4Y            -6.6863959142       13.9763249405       14.2562043654  MEMB      14              0.0000000000
      1840        14  POPC      C35            -8.0927586348       14.6798102963       14.1221336294  MEMB      14              0.0000000000
      1841        14  POPC      H5X            -7.7541080401       15.5823826575       14.6995064169  MEMB      14              0.0000000000
      1842        14  POPC      H5Y            -9.1622477659       14.4755556425       14.2422593941  MEMB      14              0.0000000000
      1843        14  POPC      C36            -7.6984160613       14.9099006262       12.6026552893  MEMB      14              0.0000000000
      1844        14  POPC      H6X            -8.0724335361       14.0697633028       11.9765967009  MEMB      14              0.0000000000
      1845        14  POPC      H6Y            -6.5924880989       14.9300575619       12.4110441312  MEMB      14              0.0000000000
      1846        14  POPC      C37            -8.1738446789       16.2539418533       12.0621461478  MEMB      14              0.0000000000
      1847        14  POPC      H7X            -7.8542069223       17.0122862141       12.8172648622  MEMB      14              0.0000000000
      1848        14  POPC      H7Y            -9.2779052990       16.2698560221       11.9758031861  MEMB      14              0.0000000000
      1849        14  POPC      C38            -7.5156338972       16.6702402633       10.7410215502  MEMB      14              0.0000000000
      1850        14  POPC      H8X            -6.4169260605       16.7168746100       10.9338534807  MEMB      14              0.0000000000
      1851        14  POPC      H8Y            -7.8575784315       17.7004459076       10.4947487828  MEMB      14              0.0000000000
      1852        14  POPC      C39            -7.7269472933       15.7777608708        9.5038441163  MEMB      14              0.0000000000
      1853        14  POPC      H9X            -8.5136845997       16.2317740036        8.8658331344  MEMB      14              0.0000000000
      1854        14  POPC      H9Y            -8.0676607556       14.7578691360        9.7878621892  MEMB      14              0.0000000000
      1855        14  POPC      C310           -6.3786866314       15.6590981691        8.7759834060  MEMB      14              0.0000000000
      1856        14  POPC      H10X           -5.7787199754       15.0421286569        9.4651963812  MEMB      14              0.0000000000
      1857        14  POPC      H10Y           -5.8876821178       16.6555481719        8.7076430286  MEMB      14              0.0000000000
      1858        14  POPC      C311           -6.3169813503       14.9668100636        7.4098806049  MEMB      14              0.0000000000
      1859        14  POPC      H11X           -7.0508700262       15.4324730693        6.7136767925  MEMB      14              0.0000000000
      1860        14  POPC      H11Y           -6.6080227011       13.9030481926        7.5511942307  MEMB      14              0.0000000000
      1861        14  POPC      C312           -4.8771435457       15.0439558803        6.8404413685  MEMB      14              0.0000000000
      1862        14  POPC      H12X           -4.1394826075       14.7099825242        7.5924469712  MEMB      14              0.0000000000
      1863        14  POPC      H12Y           -4.6562624099       16.1026794194        6.5680742755  MEMB      14              0.0000000000
      1864        14  POPC      C313           -4.6014927144       14.1958950241        5.6164756373  MEMB      14              0.0000000000
      1865        14  POPC      H13X           -4.6940782413       13.1030558540        5.8118926439  MEMB      14              0.0000000000
      1866        14  POPC      H13Y           -3.5656108175       14.3586455646        5.2292792772  MEMB      14              0.0000000000
      1867        14  POPC      C314           -5.6181168878       14.5286200023        4.5812168290  MEMB      14              0.0000000000
      1868        14  POPC      H14X           -5.6782650762       15.5899430101        4.2693313683  MEMB      14              0.0000000000
      1869        14  POPC      H14Y           -6.6297193652       14.1836508012        4.8897760741  MEMB      14              0.0000000000
      1870        14  POPC      C315           -5.2376503129       13.8366512369        3.3616315327  MEMB      14              0.0000000000
      1871        14  POPC      H15X           -6.2626178603       13.7688343608        2.9287371063  MEMB      14              0.0000000000
      1872        14  POPC      H15Y           -4.8577528657       12.7896822284        3.4324118819  MEMB      14              0.0000000000
      1873        14  POPC      C316           -4.2782471737       14.6915384958        2.5551100442  MEMB      14              0.0000000000
      1874        14  POPC      H16X           -4.0905170812       14.0493315272        1.7122352785  MEMB      14              0.0000000000
      1875        14  POPC      H16Y           -3.2799737326       14.8353871877        2.9527863119  MEMB      14              0.0000000000
      1876        14  POPC      H16Z           -4.6518365968       15.6642864889        2.1783625958  MEMB      14              0.0000000000
      1877        15  POPC      N             -18.8507145356        2.0068782189       21.0911472366  MEMB      15              0.0000000000
      1878        15  POPC      C12           -19.7147254142        2.6745115789       20.0274782776  MEMB      15              0.0000000000
      1879        15  POPC      H12A          -19.2010690707        3.5685087759       19.6769048565  MEMB      15              0.0000000000
      1880        15  POPC      H12B          -20.6171251211        3.0275890591       20.5133698291  MEMB      15              0.0000000000
      1881        15  POPC      C13           -19.5032204958        0.7571017708       21.5643808286  MEMB      15              0.0000000000
      1882        15  POPC      H13A          -20.5665912262        0.9048398806       21.5427760452  MEMB      15              0.0000000000
      1883        15  POPC      H13B          -19.2935152451       -0.0927203461       20.9111096237  MEMB      15              0.0000000000
      1884        15  POPC      H13C          -19.1905218677        0.5021280829       22.5690395665  MEMB      15              0.0000000000
      1885        15  POPC      C14           -17.5085265596        1.6753679934       20.5278090501  MEMB      15              0.0000000000
      1886        15  POPC      H14A          -16.8794721367        1.1729157286       21.2401759964  MEMB      15              0.0000000000
      1887        15  POPC      H14B          -17.6721374108        1.0049781518       19.6745478813  MEMB      15              0.0000000000
      1888        15  POPC      H14C          -17.0448479710        2.5545481751       20.0939573329  MEMB      15              0.0000000000
      1889        15  POPC      C15           -18.7617325817        2.9604054382       22.2250523467  MEMB      15              0.0000000000
      1890        15  POPC      H15A          -18.1434355373        2.5788851677       23.0141595968  MEMB      15              0.0000000000
      1891        15  POPC      H15B          -19.7564932528        3.1446738576       22.6261919443  MEMB      15              0.0000000000
      1892        15  POPC      H15C          -18.4043525904        3.9409673875       21.9286309022  MEMB      15              0.0000000000
      1893        15  POPC      C11           -20.1259550433        1.8950687577       18.7617568945  MEMB      15              0.0000000000
      1894        15  POPC      H11A          -20.8408655259        2.5318183822       18.1779164613  MEMB      15              0.0000000000
      1895        15  POPC      H11B          -20.6831104591        0.9697327807       19.0072408623  MEMB      15              0.0000000000
      1896        15  POPC      P             -18.3976573486        2.6065838619       16.9908447605  MEMB      15              0.0000000000
      1897        15  POPC      O13           -17.8438274666        3.7110016730       17.8120212851  MEMB      15              0.0000000000
      1898        15  POPC      O14           -19.4228158576        2.9662474364       15.9851263106  MEMB      15              0.0000000000
      1899        15  POPC      O12           -18.9762307427        1.5416665130       18.0028798508  MEMB      15              0.0000000000
      1900        15  POPC      O11           -17.2028131790        1.8566789689       16.2747206564  MEMB      15              0.0000000000
      1901        15  POPC      C1            -16.3863679505        0.9107001516       16.9727726639  MEMB      15              0.0000000000
      1902        15  POPC      HA            -16.9617863380        0.2948573509       17.7031705313  MEMB      15              0.0000000000
      1903        15  POPC      HB            -15.5854699536        1.4543080509       17.5125127319  MEMB      15              0.0000000000
      1904        15  POPC      C2            -15.6993479708       -0.0881463828       15.9947641142  MEMB      15              0.0000000000
      1905        15  POPC      HS            -14.7877245018       -0.5075773188       16.4742158131  MEMB      15              0.0000000000
      1906        15  POPC      O21           -15.3587385244        0.5385557221       14.7502375993  MEMB      15              0.0000000000
      1907        15  POPC      C21           -14.6071255961        1.6256742872       14.9026434226  MEMB      15              0.0000000000
      1908        15  POPC      O22           -13.7502185069        1.7541934101       15.7628108517  MEMB      15              0.0000000000
      1909        15  POPC      C22           -14.9882731105        2.6719573307       13.8501819377  MEMB      15              0.0000000000
      1910        15  POPC      H2R           -14.0558040328        3.1564635154       13.4876470343  MEMB      15              0.0000000000
      1911        15  POPC      H2S           -15.6355427814        3.4382249577       14.3154365134  MEMB      15              0.0000000000
      1912        15  POPC      C3            -16.6562610906       -1.2497833663       15.6810490921  MEMB      15              0.0000000000
      1913        15  POPC      HX            -16.8776703854       -1.8454223797       16.5884185980  MEMB      15              0.0000000000
      1914        15  POPC      HY            -16.1374573423       -1.9097952101       14.9586438734  MEMB      15              0.0000000000
      1915        15  POPC      O31           -17.8716166374       -0.6919193817       15.1679439032  MEMB      15              0.0000000000
      1916        15  POPC      C31           -18.1139146251       -1.0657634837       13.9561151566  MEMB      15              0.0000000000
      1917        15  POPC      O32           -17.6684073763       -2.0478455443       13.3953369351  MEMB      15              0.0000000000
      1918        15  POPC      C32           -19.1405982141       -0.2178206578       13.3410609725  MEMB      15              0.0000000000
      1919        15  POPC      H2X           -18.7654404010        0.7552621828       12.9778534648  MEMB      15              0.0000000000
      1920        15  POPC      H2Y           -19.9652735107       -0.0986380906       14.0868386090  MEMB      15              0.0000000000
      1921        15  POPC      C23           -15.7495325751        2.0763977870       12.6697906042  MEMB      15              0.0000000000
      1922        15  POPC      H3R           -16.3242005939        2.8669506280       12.1372338089  MEMB      15              0.0000000000
      1923        15  POPC      H3S           -16.4984886342        1.2936903681       12.9414786403  MEMB      15              0.0000000000
      1924        15  POPC      C24           -14.7174143509        1.5407693351       11.7221159050  MEMB      15              0.0000000000
      1925        15  POPC      H4R           -14.1679006376        0.6728134512       12.1801112418  MEMB      15              0.0000000000
      1926        15  POPC      H4S           -14.0046220643        2.3110481980       11.3637266293  MEMB      15              0.0000000000
      1927        15  POPC      C25           -15.4323249070        1.0995376836       10.5218620657  MEMB      15              0.0000000000
      1928        15  POPC      H5R           -16.4108567815        1.5412717840       10.2497610135  MEMB      15              0.0000000000
      1929        15  POPC      H5S           -15.8035335296        0.1911595399       10.9491692873  MEMB      15              0.0000000000
      1930        15  POPC      C26           -14.4593973422        0.9484192933        9.3865066674  MEMB      15              0.0000000000
      1931        15  POPC      H6R           -13.4223683661        0.5835775645        9.5783279802  MEMB      15              0.0000000000
      1932        15  POPC      H6S           -14.4892120492        1.8629353314        8.7712648715  MEMB      15              0.0000000000
      1933        15  POPC      C27           -14.9772700154       -0.1949393456        8.6958251410  MEMB      15              0.0000000000
      1934        15  POPC      H7R           -14.9000052543       -0.8700669202        9.4814070294  MEMB      15              0.0000000000
      1935        15  POPC      H7S           -14.2392211184       -0.9783333469        8.3042102188  MEMB      15              0.0000000000
      1936        15  POPC      C28           -16.5006213880       -0.0014159097        7.9766558624  MEMB      15              0.0000000000
      1937        15  POPC      H8R           -17.1208618649        0.8353526435        8.4141296443  MEMB      15              0.0000000000
      1938        15  POPC      H8S           -17.1322239950       -0.7208562191        7.9777417762  MEMB      15              0.0000000000
      1939        15  POPC      C29           -15.3871934460        0.5570256524        7.2542019956  MEMB      15              0.0000000000
      1940        15  POPC      H91           -16.0953660342        1.3993364915        6.5616747921  MEMB      15              0.0000000000
      1941        15  POPC      C210          -14.6950206661       -0.1326501253        5.8177117966  MEMB      15              0.0000000000
      1942        15  POPC      H101          -14.7623583018        0.5990538510        5.5918580852  MEMB      15              0.0000000000
      1943        15  POPC      C211          -14.6512004213       -2.0600606013        5.7779215343  MEMB      15              0.0000000000
      1944        15  POPC      H11R          -14.2874980910       -2.6131519970        6.4148275965  MEMB      15              0.0000000000
      1945        15  POPC      H11S          -13.8908579882       -2.2779716198        4.8649002654  MEMB      15              0.0000000000
      1946        15  POPC      C212          -15.6673943243       -3.0019792746        4.3945072057  MEMB      15              0.0000000000
      1947        15  POPC      H12R          -16.6892703195       -3.2953581018        4.5670862566  MEMB      15              0.0000000000
      1948        15  POPC      H12S          -15.6432602884       -4.0792041144        4.5318445897  MEMB      15              0.0000000000
      1949        15  POPC      C213          -16.5133276861       -2.4787557750        3.1077248632  MEMB      15              0.0000000000
      1950        15  POPC      H13R          -15.5753420303       -2.3643653024        2.5954935415  MEMB      15              0.0000000000
      1951        15  POPC      H13S          -16.1839895243       -1.6067673673        2.4345472676  MEMB      15              0.0000000000
      1952        15  POPC      C214          -18.0907017091       -1.8696891758        2.9971634216  MEMB      15              0.0000000000
      1953        15  POPC      H14R          -17.8607357941       -2.8340330256        3.3247698840  MEMB      15              0.0000000000
      1954        15  POPC      H14S          -17.7684686524       -2.2397607306        2.2196644529  MEMB      15              0.0000000000
      1955        15  POPC      C215          -19.8638910948       -1.9087108143        3.1286286505  MEMB      15              0.0000000000
      1956        15  POPC      H15R          -20.1183648184       -0.9038920718        3.3831022471  MEMB      15              0.0000000000
      1957        15  POPC      H15S          -19.5456544395       -2.0998227258        4.0416647061  MEMB      15              0.0000000000
      1958        15  POPC      C216          -21.4350102850       -2.4472737487        2.5341021066  MEMB      15              0.0000000000
      1959        15  POPC      H16R          -21.8101864337       -3.4351021174        2.1703105821  MEMB      15              0.0000000000
      1960        15  POPC      H16S          -22.0693348836       -2.5875677062        1.5971276993  MEMB      15              0.0000000000
      1961        15  POPC      C217          -22.0644414440       -1.1392963560        2.2817325863  MEMB      15              0.0000000000
      1962        15  POPC      H17R          -21.3866996775       -0.3190434359        2.1214738467  MEMB      15              0.0000000000
      1963        15  POPC      H17S          -22.3825373754       -1.0767786185        3.3070744627  MEMB      15              0.0000000000
      1964        15  POPC      C218          -22.8648279285       -0.6355238272        1.1227837134  MEMB      15              0.0000000000
      1965        15  POPC      H18R          -23.6203679258       -0.4022699110        1.8604460534  MEMB      15              0.0000000000
      1966        15  POPC      H18S          -22.8466129763       -1.0818371182        0.1349512593  MEMB      15              0.0000000000
      1967        15  POPC      H18T          -23.5724253038       -1.3194184641        0.6305425146  MEMB      15              0.0000000000
      1968        15  POPC      C33           -19.5868517671       -1.0835334761       12.1980461910  MEMB      15              0.0000000000
      1969        15  POPC      H3X           -19.7397728876       -2.1137921918       12.5826241536  MEMB      15              0.0000000000
      1970        15  POPC      H3Y           -19.0365873443       -1.1243953391       11.2541500187  MEMB      15              0.0000000000
      1971        15  POPC      C34           -20.8539676949       -0.5533285072       11.7788507413  MEMB      15              0.0000000000
      1972        15  POPC      H4X           -21.4701243701       -0.9267016480       12.6361056364  MEMB      15              0.0000000000
      1973        15  POPC      H4Y           -21.2526427136       -1.1471902521       10.9592284352  MEMB      15              0.0000000000
      1974        15  POPC      C35           -20.7656472996        0.9627585856       11.4790581791  MEMB      15              0.0000000000
      1975        15  POPC      H5X           -20.7117243404        1.6585909317       12.3318733080  MEMB      15              0.0000000000
      1976        15  POPC      H5Y           -21.7432537418        1.2721376815       11.2033460862  MEMB      15              0.0000000000
      1977        15  POPC      C36           -20.3318103995        1.3739876840       10.1159223182  MEMB      15              0.0000000000
      1978        15  POPC      H6X           -20.7573410314        0.6900500067        9.3680089082  MEMB      15              0.0000000000
      1979        15  POPC      H6Y           -19.2593993532        1.1994084723        9.9989654090  MEMB      15              0.0000000000
      1980        15  POPC      C37           -20.8858378596        2.7465446690        9.6991340820  MEMB      15              0.0000000000
      1981        15  POPC      H7X           -20.4235869663        3.5355518375       10.3100384063  MEMB      15              0.0000000000
      1982        15  POPC      H7Y           -22.0018055956        2.8656642559        9.7426551078  MEMB      15              0.0000000000
      1983        15  POPC      C38           -20.5059514153        2.7469307906        8.2543336701  MEMB      15              0.0000000000
      1984        15  POPC      H8X           -21.1407557514        1.9433542720        7.8842552627  MEMB      15              0.0000000000
      1985        15  POPC      H8Y           -19.4675796245        2.3862709273        8.1539132943  MEMB      15              0.0000000000
      1986        15  POPC      C39           -20.7948422025        3.9425130345        7.4135033178  MEMB      15              0.0000000000
      1987        15  POPC      H9X           -20.4969423465        4.8689171138        7.9484845221  MEMB      15              0.0000000000
      1988        15  POPC      H9Y           -21.8799610739        4.0178956780        7.1528294572  MEMB      15              0.0000000000
      1989        15  POPC      C310          -19.9740157486        3.9107705035        6.1354259815  MEMB      15              0.0000000000
      1990        15  POPC      H10X          -20.2883515660        4.9093017869        5.8335663393  MEMB      15              0.0000000000
      1991        15  POPC      H10Y          -20.2024269176        3.2100950727        5.3192776829  MEMB      15              0.0000000000
      1992        15  POPC      C311          -18.4868410820        3.6614613560        6.2662416288  MEMB      15              0.0000000000
      1993        15  POPC      H11X          -18.2952374230        2.6199208109        6.5847718052  MEMB      15              0.0000000000
      1994        15  POPC      H11Y          -18.0960208680        4.4275982830        6.9685504693  MEMB      15              0.0000000000
      1995        15  POPC      C312          -17.7870552425        3.7135264699        4.9321683779  MEMB      15              0.0000000000
      1996        15  POPC      H12X          -16.7745503010        4.1566589105        5.0224070277  MEMB      15              0.0000000000
      1997        15  POPC      H12Y          -18.3776061280        4.4266066539        4.4163464764  MEMB      15              0.0000000000
      1998        15  POPC      C313          -18.0153281914        2.6266495129        3.8726518584  MEMB      15              0.0000000000
      1999        15  POPC      H13X          -19.0900154342        2.3814843873        3.7302871391  MEMB      15              0.0000000000
      2000        15  POPC      H13Y          -17.4075286006        1.8179958892        4.2660147533  MEMB      15              0.0000000000
      2001        15  POPC      C314          -17.4570898080        3.0541762939        2.5193398945  MEMB      15              0.0000000000
      2002        15  POPC      H14X          -16.5782587749        3.5690975039        2.9581293666  MEMB      15              0.0000000000
      2003        15  POPC      H14Y          -18.0901464477        3.7609644776        1.9295570490  MEMB      15              0.0000000000
      2004        15  POPC      C315          -16.6770570598        2.0842422747        1.6475412876  MEMB      15              0.0000000000
      2005        15  POPC      H15X          -15.9668786383        1.5900431942        2.3317442712  MEMB      15              0.0000000000
      2006        15  POPC      H15Y          -16.0881253791        2.5252738457        0.8259060393  MEMB      15              0.0000000000
      2007        15  POPC      C316          -17.5790122186        1.1585150791        0.9571676007  MEMB      15              0.0000000000
      2008        15  POPC      H16X          -18.1891751040        1.6539554180        0.1644972988  MEMB      15              0.0000000000
      2009        15  POPC      H16Y          -18.2455572914        0.8472373871        1.7844044802  MEMB      15              0.0000000000
      2010        15  POPC      H16Z          -17.0054025782        0.3024619869        0.5424820007  MEMB      15              0.0000000000
      2011        16  POPC      N              16.4543983999       12.8149077584       19.9562896610  MEMB      16              0.0000000000
      2012        16  POPC      C12            15.1576332056       12.6615177156       20.6938096589  MEMB      16              0.0000000000
      2013        16  POPC      H12A           14.9774559450       13.5457488315       21.3025311333  MEMB      16              0.0000000000
      2014        16  POPC      H12B           15.3093422504       11.8237195398       21.3606056445  MEMB      16              0.0000000000
      2015        16  POPC      C13            16.6302235944       11.6008222765       19.1070763943  MEMB      16              0.0000000000
      2016        16  POPC      H13A           16.8472339292       10.7260444322       19.7153005299  MEMB      16              0.0000000000
      2017        16  POPC      H13B           15.7056061368       11.4185002105       18.5569788224  MEMB      16              0.0000000000
      2018        16  POPC      H13C           17.4216444181       11.7391664321       18.3933792592  MEMB      16              0.0000000000
      2019        16  POPC      C14            16.4888196808       14.0911306504       19.1594946161  MEMB      16              0.0000000000
      2020        16  POPC      H14A           15.5686744555       14.1669069160       18.5775032374  MEMB      16              0.0000000000
      2021        16  POPC      H14B           16.4737244082       14.9626077000       19.8103602366  MEMB      16              0.0000000000
      2022        16  POPC      H14C           17.3410781333       14.1744530811       18.4975179288  MEMB      16              0.0000000000
      2023        16  POPC      C15            17.5168836167       12.8496511125       20.9587736552  MEMB      16              0.0000000000
      2024        16  POPC      H15A           18.4528274030       12.7845273302       20.4285481956  MEMB      16              0.0000000000
      2025        16  POPC      H15B           17.5172726466       12.0272039875       21.6601911911  MEMB      16              0.0000000000
      2026        16  POPC      H15C           17.4561669699       13.7757108941       21.5357344081  MEMB      16              0.0000000000
      2027        16  POPC      C11            13.9074154792       12.3221080694       19.8611454341  MEMB      16              0.0000000000
      2028        16  POPC      H11A           13.0984651953       12.1049089593       20.5941397132  MEMB      16              0.0000000000
      2029        16  POPC      H11B           14.0796677843       11.3792526907       19.2827151407  MEMB      16              0.0000000000
      2030        16  POPC      P              12.3695488018       13.1146985561       17.9307876216  MEMB      16              0.0000000000
      2031        16  POPC      O13            11.3352537539       14.1710844158       17.9975266363  MEMB      16              0.0000000000
      2032        16  POPC      O14            11.8247303665       11.7586644006       18.1684418025  MEMB      16              0.0000000000
      2033        16  POPC      O12            13.5233253468       13.4008303508       19.0064111940  MEMB      16              0.0000000000
      2034        16  POPC      O11            13.1936343026       13.2297336568       16.5646583854  MEMB      16              0.0000000000
      2035        16  POPC      C1             14.1789407859       14.2509250068       16.3612853443  MEMB      16              0.0000000000
      2036        16  POPC      HA             15.0739447856       13.7950735403       15.8756892220  MEMB      16              0.0000000000
      2037        16  POPC      HB             14.5373318958       14.6968736110       17.3123511516  MEMB      16              0.0000000000
      2038        16  POPC      C2             13.6672580144       15.4568017618       15.5010636747  MEMB      16              0.0000000000
      2039        16  POPC      HS             12.8849067563       15.9824883366       16.0797094205  MEMB      16              0.0000000000
      2040        16  POPC      O21            13.1460522556       14.9501390887       14.2376133081  MEMB      16              0.0000000000
      2041        16  POPC      C21            12.5222315059       15.8277367146       13.4809878074  MEMB      16              0.0000000000
      2042        16  POPC      O22            12.3776900283       17.0016686575       13.7456690607  MEMB      16              0.0000000000
      2043        16  POPC      C22            11.9297199249       15.1277256235       12.2559765381  MEMB      16              0.0000000000
      2044        16  POPC      H2R            11.0725892989       14.5308173282       12.5957319458  MEMB      16              0.0000000000
      2045        16  POPC      H2S            12.6618107275       14.4043057381       11.8696179872  MEMB      16              0.0000000000
      2046        16  POPC      C3             14.8251014198       16.4528871014       15.2958213724  MEMB      16              0.0000000000
      2047        16  POPC      HX             15.3757542077       16.6848378213       16.2312665354  MEMB      16              0.0000000000
      2048        16  POPC      HY             14.5384446125       17.4049662809       14.8023254235  MEMB      16              0.0000000000
      2049        16  POPC      O31            15.6740314532       15.7049748594       14.5056672785  MEMB      16              0.0000000000
      2050        16  POPC      C31            16.1556110780       16.2738163270       13.4699675932  MEMB      16              0.0000000000
      2051        16  POPC      O32            16.2176626478       17.4411673354       13.1545601385  MEMB      16              0.0000000000
      2052        16  POPC      C32            16.9722239826       15.2168496054       12.9175548468  MEMB      16              0.0000000000
      2053        16  POPC      H2X            17.2408929184       14.5635446515       13.7830002072  MEMB      16              0.0000000000
      2054        16  POPC      H2Y            17.8337023263       15.8651257525       12.6323520598  MEMB      16              0.0000000000
      2055        16  POPC      C23            11.4073063378       16.1306077903       11.2165942719  MEMB      16              0.0000000000
      2056        16  POPC      H3R            10.8855894831       16.9847357219       11.7010063196  MEMB      16              0.0000000000
      2057        16  POPC      H3S            10.7464423836       15.6484167029       10.4699910067  MEMB      16              0.0000000000
      2058        16  POPC      C24            12.5340051098       16.6438432593       10.3832767549  MEMB      16              0.0000000000
      2059        16  POPC      H4R            13.2227120452       17.0941174405       11.1199269067  MEMB      16              0.0000000000
      2060        16  POPC      H4S            12.1574066006       17.3973811923        9.6478269306  MEMB      16              0.0000000000
      2061        16  POPC      C25            13.2910147648       15.4862179552        9.7789970611  MEMB      16              0.0000000000
      2062        16  POPC      H5R            12.5895372872       14.8870339097        9.1582659061  MEMB      16              0.0000000000
      2063        16  POPC      H5S            13.8668700441       14.9493400712       10.5572581672  MEMB      16              0.0000000000
      2064        16  POPC      C26            14.4275351356       15.7383120601        8.8654107806  MEMB      16              0.0000000000
      2065        16  POPC      H6R            13.8576728474       16.2281144045        8.0458446208  MEMB      16              0.0000000000
      2066        16  POPC      H6S            14.7569130914       14.7686136865        8.4960981738  MEMB      16              0.0000000000
      2067        16  POPC      C27            15.6513893685       16.5064353956        9.5372199621  MEMB      16              0.0000000000
      2068        16  POPC      H7R            15.8603696236       16.3564513633       10.6190881037  MEMB      16              0.0000000000
      2069        16  POPC      H7S            14.8761872465       17.2284703591        9.6787295723  MEMB      16              0.0000000000
      2070        16  POPC      C28            16.9155628771       17.1179594128        8.7151781759  MEMB      16              0.0000000000
      2071        16  POPC      H8R            17.7136038800       17.7125497664        9.2143858802  MEMB      16              0.0000000000
      2072        16  POPC      H8S            16.9408956598       17.6529501155        7.7399943232  MEMB      16              0.0000000000
      2073        16  POPC      C29            16.9772575533       15.7597633654        8.6881981774  MEMB      16              0.0000000000
      2074        16  POPC      H91            17.6083089741       15.8312744838        9.5326203770  MEMB      16              0.0000000000
      2075        16  POPC      C210           17.1579266503       15.0775237942        7.6096623902  MEMB      16              0.0000000000
      2076        16  POPC      H101           17.8445327426       14.2802488872        7.6563149133  MEMB      16              0.0000000000
      2077        16  POPC      C211           17.3062469505       15.6332319740        6.2926693033  MEMB      16              0.0000000000
      2078        16  POPC      H11R           18.2735965487       15.5415665149        5.8295708118  MEMB      16              0.0000000000
      2079        16  POPC      H11S           17.4627209106       16.6773507659        6.3004571492  MEMB      16              0.0000000000
      2080        16  POPC      C212           16.2111714326       14.8383626013        5.6345619778  MEMB      16              0.0000000000
      2081        16  POPC      H12R           15.7211790329       15.2698614011        4.7484357888  MEMB      16              0.0000000000
      2082        16  POPC      H12S           15.3052819621       14.6443968443        6.2371791140  MEMB      16              0.0000000000
      2083        16  POPC      C213           16.9694320051       13.5913347058        5.2323911937  MEMB      16              0.0000000000
      2084        16  POPC      H13R           16.2288992552       12.9836952193        4.7166392298  MEMB      16              0.0000000000
      2085        16  POPC      H13S           17.1042935208       13.1039006175        6.2070357415  MEMB      16              0.0000000000
      2086        16  POPC      C214           18.3321096298       13.7681780808        4.4731246002  MEMB      16              0.0000000000
      2087        16  POPC      H14R           19.1893923692       14.1333278474        5.1062410422  MEMB      16              0.0000000000
      2088        16  POPC      H14S           18.2751205273       14.4307369428        3.6079099966  MEMB      16              0.0000000000
      2089        16  POPC      C215           18.8014903321       12.4791788532        3.9301406544  MEMB      16              0.0000000000
      2090        16  POPC      H15R           19.2235268267       12.1608363312        4.8679451147  MEMB      16              0.0000000000
      2091        16  POPC      H15S           19.7557163597       12.4459711179        3.4102890715  MEMB      16              0.0000000000
      2092        16  POPC      C216           17.6304793320       11.6498151057        3.3792037919  MEMB      16              0.0000000000
      2093        16  POPC      H16R           16.8251825236       12.3176265568        3.0003317840  MEMB      16              0.0000000000
      2094        16  POPC      H16S           17.3040290801       10.9676020701        4.1882561121  MEMB      16              0.0000000000
      2095        16  POPC      C217           17.8846881761       10.7342810493        2.2499732589  MEMB      16              0.0000000000
      2096        16  POPC      H17R           17.2403053154        9.8409672476        2.0636498639  MEMB      16              0.0000000000
      2097        16  POPC      H17S           18.9378240207       10.7239270562        2.1763609827  MEMB      16              0.0000000000
      2098        16  POPC      C218           18.0495716065       11.2889719818        0.9885199259  MEMB      16              0.0000000000
      2099        16  POPC      H18R           17.0309334755       11.6928773911        0.8923138552  MEMB      16              0.0000000000
      2100        16  POPC      H18S           18.4283952258       10.6240557876        0.1669324164  MEMB      16              0.0000000000
      2101        16  POPC      H18T           18.7295009391       12.1379531969        0.9344662304  MEMB      16              0.0000000000
      2102        16  POPC      C33            16.5697474483       14.0793516282       11.9694130390  MEMB      16              0.0000000000
      2103        16  POPC      H3X            17.4019064723       13.3614265327       11.7954113970  MEMB      16              0.0000000000
      2104        16  POPC      H3Y            16.3531009593       14.4505709066       10.9677393168  MEMB      16              0.0000000000
      2105        16  POPC      C34            15.5278972648       13.2470799167       12.6926132710  MEMB      16              0.0000000000
      2106        16  POPC      H4X            14.6055289213       13.8528985446       12.6989279330  MEMB      16              0.0000000000
      2107        16  POPC      H4Y            15.8355627979       13.0716842721       13.7530122924  MEMB      16              0.0000000000
      2108        16  POPC      C35            15.2804830280       11.8848230716       12.0835143749  MEMB      16              0.0000000000
      2109        16  POPC      H5X            14.6685836082       11.3078030435       12.8129671555  MEMB      16              0.0000000000
      2110        16  POPC      H5Y            16.2401438898       11.3528935201       11.9357404988  MEMB      16              0.0000000000
      2111        16  POPC      C36            14.4983706374       12.0245157736       10.7984116147  MEMB      16              0.0000000000
      2112        16  POPC      H6X            14.9864579908       12.7768983215       10.1481814694  MEMB      16              0.0000000000
      2113        16  POPC      H6Y            13.4721536818       12.3622947359       11.0818073955  MEMB      16              0.0000000000
      2114        16  POPC      C37            14.3702663680       10.7379234387       10.0091189080  MEMB      16              0.0000000000
      2115        16  POPC      H7X            14.0412566502        9.9802153080       10.7285712532  MEMB      16              0.0000000000
      2116        16  POPC      H7Y            15.3468331770       10.3947102451        9.6513590394  MEMB      16              0.0000000000
      2117        16  POPC      C38            13.4223965754       10.9417310717        8.8345277538  MEMB      16              0.0000000000
      2118        16  POPC      H8X            12.5792126026       11.5560552750        9.2094414959  MEMB      16              0.0000000000
      2119        16  POPC      H8Y            13.0562665929        9.9694872365        8.4302513645  MEMB      16              0.0000000000
      2120        16  POPC      C39            14.0003925854       11.7997910906        7.7249804603  MEMB      16              0.0000000000
      2121        16  POPC      H9X            15.0837241131       11.5703002923        7.6566343844  MEMB      16              0.0000000000
      2122        16  POPC      H9Y            13.8753753697       12.8744097262        7.9951097072  MEMB      16              0.0000000000
      2123        16  POPC      C310           13.3580635312       11.5231447433        6.3723042472  MEMB      16              0.0000000000
      2124        16  POPC      H10X           13.2137718987       10.4341282912        6.1966675885  MEMB      16              0.0000000000
      2125        16  POPC      H10Y           14.0887447425       11.8740564361        5.6144218836  MEMB      16              0.0000000000
      2126        16  POPC      C311           12.0186345398       12.2290085096        6.1794136051  MEMB      16              0.0000000000
      2127        16  POPC      H11X           11.9282649253       13.1530696042        6.7915947392  MEMB      16              0.0000000000
      2128        16  POPC      H11Y           11.2268633491       11.5281797713        6.4914767169  MEMB      16              0.0000000000
      2129        16  POPC      C312           11.8113028955       12.5914418236        4.7256547068  MEMB      16              0.0000000000
      2130        16  POPC      H12X           10.7844036528       12.9984118598        4.5732230246  MEMB      16              0.0000000000
      2131        16  POPC      H12Y           11.8898655378       11.6508680329        4.1313778329  MEMB      16              0.0000000000
      2132        16  POPC      C313           12.8583669465       13.6075506495        4.2500690510  MEMB      16              0.0000000000
      2133        16  POPC      H13X           13.7880926520       13.0782127805        3.9375238367  MEMB      16              0.0000000000
      2134        16  POPC      H13Y           13.1072647749       14.3258339306        5.0606346356  MEMB      16              0.0000000000
      2135        16  POPC      C314           12.3434364829       14.3722612772        3.0590409817  MEMB      16              0.0000000000
      2136        16  POPC      H14X           13.1073740005       15.0880073293        2.6718138762  MEMB      16              0.0000000000
      2137        16  POPC      H14Y           11.4711553656       14.9696271445        3.3971592450  MEMB      16              0.0000000000
      2138        16  POPC      C315           11.9577813099       13.3644476257        1.9913918196  MEMB      16              0.0000000000
      2139        16  POPC      H15X           10.9771503661       13.6880345550        1.5755169028  MEMB      16              0.0000000000
      2140        16  POPC      H15Y           11.7934384282       12.3265599086        2.3225905391  MEMB      16              0.0000000000
      2141        16  POPC      C316           13.0478804894       13.2389571668        0.9551364400  MEMB      16              0.0000000000
      2142        16  POPC      H16X           14.0878904429       13.0815250732        1.2581060453  MEMB      16              0.0000000000
      2143        16  POPC      H16Y           13.0966232879       14.2282689430        0.5085648844  MEMB      16              0.0000000000
      2144        16  POPC      H16Z           12.7399997034       12.4898663449        0.1921380465  MEMB      16              0.0000000000
      2145        17  POPC      N               6.3428808755       16.2036292337       19.2456728288  MEMB      17              0.0000000000
      2146        17  POPC      C12             7.1727659789       16.9371922533       18.1804505774  MEMB      17              0.0000000000
      2147        17  POPC      H12A            6.5307043867       17.4350344516       17.4649136331  MEMB      17              0.0000000000
      2148        17  POPC      H12B            7.7125420066       16.1844190255       17.6144710645  MEMB      17              0.0000000000
      2149        17  POPC      C13             5.5845224305       17.1547357216       20.1212475470  MEMB      17              0.0000000000
      2150        17  POPC      H13A            6.2148704554       17.5951855938       20.8873262081  MEMB      17              0.0000000000
      2151        17  POPC      H13B            5.2358747889       18.0230571586       19.5559685244  MEMB      17              0.0000000000
      2152        17  POPC      H13C            4.7182558306       16.6986138838       20.5849204419  MEMB      17              0.0000000000
      2153        17  POPC      C14             5.2960452453       15.4084789060       18.5405242912  MEMB      17              0.0000000000
      2154        17  POPC      H14A            4.7396393270       14.8042331534       19.2388472993  MEMB      17              0.0000000000
      2155        17  POPC      H14B            4.5896572553       16.0961253720       18.0690339672  MEMB      17              0.0000000000
      2156        17  POPC      H14C            5.7258140707       14.7706982325       17.7817013365  MEMB      17              0.0000000000
      2157        17  POPC      C15             7.2864568576       15.3361078475       20.0576940829  MEMB      17              0.0000000000
      2158        17  POPC      H15A            7.8600071403       14.6460027270       19.4410746788  MEMB      17              0.0000000000
      2159        17  POPC      H15B            6.7886172762       14.7414669556       20.8087543809  MEMB      17              0.0000000000
      2160        17  POPC      H15C            8.0353627649       15.9508990301       20.5574208015  MEMB      17              0.0000000000
      2161        17  POPC      C11             8.2383547067       17.9973560334       18.5844411396  MEMB      17              0.0000000000
      2162        17  POPC      H11A            8.6541396040       18.4379849353       17.6368083575  MEMB      17              0.0000000000
      2163        17  POPC      H11B            9.0798030659       17.4528736075       19.0549358458  MEMB      17              0.0000000000
      2164        17  POPC      P               7.1255887060       20.3705874164       18.9941464709  MEMB      17              0.0000000000
      2165        17  POPC      O13             8.1164309347       21.4600531294       19.0787591755  MEMB      17              0.0000000000
      2166        17  POPC      O14             5.8047063885       20.5691535011       19.6329758755  MEMB      17              0.0000000000
      2167        17  POPC      O12             7.7546149149       18.9922683739       19.4981414008  MEMB      17              0.0000000000
      2168        17  POPC      O11             6.9344785570       20.0170480269       17.5014121498  MEMB      17              0.0000000000
      2169        17  POPC      C1              5.7661549388       20.4445461939       16.8900695304  MEMB      17              0.0000000000
      2170        17  POPC      HA              5.6726422368       21.5467690691       16.7572034909  MEMB      17              0.0000000000
      2171        17  POPC      HB              4.8524999483       20.1421252316       17.4917518095  MEMB      17              0.0000000000
      2172        17  POPC      C2              5.6860367168       19.7017186791       15.5690282828  MEMB      17              0.0000000000
      2173        17  POPC      HS              4.6943345563       19.4827899836       15.7300733183  MEMB      17              0.0000000000
      2174        17  POPC      O21             6.4357891603       18.5285452603       15.3927060522  MEMB      17              0.0000000000
      2175        17  POPC      C21             5.6346271006       17.5823644620       14.9202356170  MEMB      17              0.0000000000
      2176        17  POPC      O22             4.5682019992       17.2209233360       15.3663877608  MEMB      17              0.0000000000
      2177        17  POPC      C22             6.4596681115       16.7421804940       14.0766583666  MEMB      17              0.0000000000
      2178        17  POPC      H2R             5.7405117061       15.9017995217       13.9163209166  MEMB      17              0.0000000000
      2179        17  POPC      H2S             7.3523574344       16.5184252851       14.7021853072  MEMB      17              0.0000000000
      2180        17  POPC      C3              6.0056083505       20.5496151014       14.3226211934  MEMB      17              0.0000000000
      2181        17  POPC      HX              7.0138200864       21.0145273153       14.4013927868  MEMB      17              0.0000000000
      2182        17  POPC      HY              5.3482925791       21.3715264601       14.6435122747  MEMB      17              0.0000000000
      2183        17  POPC      O31             5.7912138430       19.9233390103       12.9857505788  MEMB      17              0.0000000000
      2184        17  POPC      C31             4.7454135873       19.5696050672       12.1697550681  MEMB      17              0.0000000000
      2185        17  POPC      O32             3.6011684571       19.9107287965       12.1410690667  MEMB      17              0.0000000000
      2186        17  POPC      C32             5.0361616560       18.9420938644       10.8892291564  MEMB      17              0.0000000000
      2187        17  POPC      H2X             5.2073768378       17.9029640717       11.0027485319  MEMB      17              0.0000000000
      2188        17  POPC      H2Y             5.8391679720       19.4970166137       10.4245880431  MEMB      17              0.0000000000
      2189        17  POPC      C23             6.8395530757       17.1447439017       12.6896867553  MEMB      17              0.0000000000
      2190        17  POPC      H3R             7.0124470413       18.2249695899       12.6476956720  MEMB      17              0.0000000000
      2191        17  POPC      H3S             5.9833755091       16.7489053045       12.0956369968  MEMB      17              0.0000000000
      2192        17  POPC      C24             8.0604559593       16.4784612698       12.0971975737  MEMB      17              0.0000000000
      2193        17  POPC      H4R             7.8715299350       15.4355765311       12.2179461937  MEMB      17              0.0000000000
      2194        17  POPC      H4S             9.0077873281       16.7263518019       12.6075232114  MEMB      17              0.0000000000
      2195        17  POPC      C25             8.0624786407       16.4857384397       10.5750948927  MEMB      17              0.0000000000
      2196        17  POPC      H5R             7.1093397362       15.9744967292       10.2883904127  MEMB      17              0.0000000000
      2197        17  POPC      H5S             8.8560071259       15.8250024658       10.1859401497  MEMB      17              0.0000000000
      2198        17  POPC      C26             8.1213990406       17.9114551258       10.0379188179  MEMB      17              0.0000000000
      2199        17  POPC      H6R             7.4306953359       18.5004817525       10.6533387448  MEMB      17              0.0000000000
      2200        17  POPC      H6S             7.7570202849       17.9156281397        8.9926909814  MEMB      17              0.0000000000
      2201        17  POPC      C27             9.4848658342       18.6083095301       10.1699505330  MEMB      17              0.0000000000
      2202        17  POPC      H7R            10.1935561357       17.9918858803        9.5857927849  MEMB      17              0.0000000000
      2203        17  POPC      H7S             9.8092229082       18.6224259579       11.2352418542  MEMB      17              0.0000000000
      2204        17  POPC      C28             9.5898250847       20.0404702883        9.6146269258  MEMB      17              0.0000000000
      2205        17  POPC      H8R             9.1685575414       20.0433210316        8.5836108314  MEMB      17              0.0000000000
      2206        17  POPC      H8S            10.6677668377       20.2870006133        9.5164143368  MEMB      17              0.0000000000
      2207        17  POPC      C29             8.9913165457       21.0953670420       10.5027598109  MEMB      17              0.0000000000
      2208        17  POPC      H91             9.6354761171       21.5202230179       11.2892140422  MEMB      17              0.0000000000
      2209        17  POPC      C210            7.7696276677       21.5876177825       10.3412864066  MEMB      17              0.0000000000
      2210        17  POPC      H101            7.5095803640       22.5186533279       10.8800907614  MEMB      17              0.0000000000
      2211        17  POPC      C211            6.8152294088       21.1570088514        9.2372494212  MEMB      17              0.0000000000
      2212        17  POPC      H11R            5.7623759803       21.2729039945        9.5019523087  MEMB      17              0.0000000000
      2213        17  POPC      H11S            7.0277289655       20.2529488103        8.6232860292  MEMB      17              0.0000000000
      2214        17  POPC      C212            6.8359119429       22.0874018564        8.1536629539  MEMB      17              0.0000000000
      2215        17  POPC      H12R            7.8695475108       22.1513445358        7.7612234559  MEMB      17              0.0000000000
      2216        17  POPC      H12S            7.0096343465       23.0200889773        8.6878883595  MEMB      17              0.0000000000
      2217        17  POPC      C213            5.6548231503       22.0481299178        7.0742431917  MEMB      17              0.0000000000
      2218        17  POPC      H13R            5.2569977670       22.9799912073        6.6507614133  MEMB      17              0.0000000000
      2219        17  POPC      H13S            4.6238732633       21.8645050397        7.3159262674  MEMB      17              0.0000000000
      2220        17  POPC      C214            6.1184727520       21.4514012776        5.7843527851  MEMB      17              0.0000000000
      2221        17  POPC      H14R            6.5074551301       20.4482381399        5.9554647143  MEMB      17              0.0000000000
      2222        17  POPC      H14S            6.8351950660       21.9972147492        5.2365475481  MEMB      17              0.0000000000
      2223        17  POPC      C215            5.2335605831       21.6390264980        4.6161481833  MEMB      17              0.0000000000
      2224        17  POPC      H15R            5.2067630598       22.6319767250        4.1055730160  MEMB      17              0.0000000000
      2225        17  POPC      H15S            4.2962408084       21.5272541232        5.1885931440  MEMB      17              0.0000000000
      2226        17  POPC      C216            5.6442787008       20.5622702110        3.6322661120  MEMB      17              0.0000000000
      2227        17  POPC      H16R            4.9114391710       20.1480972221        2.9327066695  MEMB      17              0.0000000000
      2228        17  POPC      H16S            6.0019520596       19.7525330780        4.2252368187  MEMB      17              0.0000000000
      2229        17  POPC      C217            6.5415436809       20.9858357641        2.5596645871  MEMB      17              0.0000000000
      2230        17  POPC      H17R            7.5855389121       21.1419394248        2.8749907420  MEMB      17              0.0000000000
      2231        17  POPC      H17S            5.9497197310       21.9044767658        2.4315034435  MEMB      17              0.0000000000
      2232        17  POPC      C218            6.3441052274       20.3320396925        1.2155183856  MEMB      17              0.0000000000
      2233        17  POPC      H18R            6.8490122454       19.5029437242        0.9309058406  MEMB      17              0.0000000000
      2234        17  POPC      H18S            6.5766839129       20.9048847081        0.3738898347  MEMB      17              0.0000000000
      2235        17  POPC      H18T            5.3855119094       19.8710529092        1.0298998935  MEMB      17              0.0000000000
      2236        17  POPC      C33             3.7572423991       19.1022098352       10.0393553853  MEMB      17              0.0000000000
      2237        17  POPC      H3X             3.6653915319       20.1231156332       10.0509648190  MEMB      17              0.0000000000
      2238        17  POPC      H3Y             2.7586399901       18.7705369989       10.4101976439  MEMB      17              0.0000000000
      2239        17  POPC      C34             3.9644511408       18.8833529592        8.6094467857  MEMB      17              0.0000000000
      2240        17  POPC      H4X             4.8722050673       19.3781552948        8.1970251979  MEMB      17              0.0000000000
      2241        17  POPC      H4Y             3.0912788367       19.1515951887        7.9722645617  MEMB      17              0.0000000000
      2242        17  POPC      C35             4.0328020399       17.4377718420        8.6661426236  MEMB      17              0.0000000000
      2243        17  POPC      H5X             3.0644067507       17.0997401520        9.1321008570  MEMB      17              0.0000000000
      2244        17  POPC      H5Y             4.8797153203       17.0618238723        9.2709352635  MEMB      17              0.0000000000
      2245        17  POPC      C36             4.1365684172       17.0913671683        7.2650995037  MEMB      17              0.0000000000
      2246        17  POPC      H6X             5.2001286614       16.8126773502        7.0603693744  MEMB      17              0.0000000000
      2247        17  POPC      H6Y             3.8888928567       17.9412839827        6.5893380982  MEMB      17              0.0000000000
      2248        17  POPC      C37             3.0771578547       16.0267218151        7.1242124962  MEMB      17              0.0000000000
      2249        17  POPC      H7X             2.0601075338       16.2219278778        7.4868167434  MEMB      17              0.0000000000
      2250        17  POPC      H7Y             3.5946356513       15.2661468484        7.7589755746  MEMB      17              0.0000000000
      2251        17  POPC      C38             2.7993986577       15.8107388708        5.6436977887  MEMB      17              0.0000000000
      2252        17  POPC      H8X             3.1168319558       16.7988057854        5.2911536184  MEMB      17              0.0000000000
      2253        17  POPC      H8Y             1.9894751269       15.2904814445        5.1640773428  MEMB      17              0.0000000000
      2254        17  POPC      C39             3.6852302742       14.8109377375        5.1374398509  MEMB      17              0.0000000000
      2255        17  POPC      H9X             4.1719755549       14.5167203488        6.1255541781  MEMB      17              0.0000000000
      2256        17  POPC      H9Y             4.5025381482       15.2933394349        5.8122372882  MEMB      17              0.0000000000
      2257        17  POPC      C310            3.9413724400       13.8207642725        3.4756208553  MEMB      17              0.0000000000
      2258        17  POPC      H10X            3.4113812476       12.8937554670        3.2790420391  MEMB      17              0.0000000000
      2259        17  POPC      H10Y            4.7950750896       13.0166586251        3.4379773073  MEMB      17              0.0000000000
      2260        17  POPC      C311            4.6599142307       13.9325878662        2.1083183615  MEMB      17              0.0000000000
      2261        17  POPC      H11X            3.9138211444       14.7087595312        2.1740520817  MEMB      17              0.0000000000
      2262        17  POPC      H11Y            4.2387022982       13.3934695795        1.2465522228  MEMB      17              0.0000000000
      2263        17  POPC      C312            6.2537368263       13.8542481980        2.0427640480  MEMB      17              0.0000000000
      2264        17  POPC      H12X            6.8702791980       12.9966440716        1.8294245739  MEMB      17              0.0000000000
      2265        17  POPC      H12Y            6.9829715147       14.0926924877        2.8095338850  MEMB      17              0.0000000000
      2266        17  POPC      C313            6.6075944663       15.1005666585        1.5097671993  MEMB      17              0.0000000000
      2267        17  POPC      H13X            5.8064200850       15.6505425924        1.8186485523  MEMB      17              0.0000000000
      2268        17  POPC      H13Y            6.1230094521       14.9583049494        0.5279687251  MEMB      17              0.0000000000
      2269        17  POPC      C314            8.0538034942       15.7362458077        1.8536222409  MEMB      17              0.0000000000
      2270        17  POPC      H14X            7.9901555081       16.6338194842        1.2481942417  MEMB      17              0.0000000000
      2271        17  POPC      H14Y            8.7405141566       15.0217165387        1.4234555251  MEMB      17              0.0000000000
      2272        17  POPC      C315            8.7524299945       16.6574177179        2.9203530911  MEMB      17              0.0000000000
      2273        17  POPC      H15X            8.7065876970       16.0800591154        3.8403713235  MEMB      17              0.0000000000
      2274        17  POPC      H15Y            8.3209260939       17.6629917559        3.1439031340  MEMB      17              0.0000000000
      2275        17  POPC      C316           10.2073397909       16.9685494910        2.5014004647  MEMB      17              0.0000000000
      2276        17  POPC      H16X           10.5099338546       16.2980853646        1.6660642585  MEMB      17              0.0000000000
      2277        17  POPC      H16Y           10.8642113177       17.0567196775        3.3645791149  MEMB      17              0.0000000000
      2278        17  POPC      H16Z           10.4525967272       17.9606333274        2.1036640267  MEMB      17              0.0000000000
      2279        18  POPC      N              -7.2806205341      -16.7564505396       18.6997782614  MEMB      18              0.0000000000
      2280        18  POPC      C12            -5.7934985078      -17.0399613100       18.5709698510  MEMB      18              0.0000000000
      2281        18  POPC      H12A           -5.2834364272      -16.1165844585       18.3387486178  MEMB      18              0.0000000000
      2282        18  POPC      H12B           -5.6355238075      -17.7082974967       17.7211393327  MEMB      18              0.0000000000
      2283        18  POPC      C13            -7.6582424890      -16.0221836784       17.4624450112  MEMB      18              0.0000000000
      2284        18  POPC      H13A           -7.1841610405      -15.0516100095       17.4588534083  MEMB      18              0.0000000000
      2285        18  POPC      H13B           -7.2865657098      -16.5709806875       16.5965339533  MEMB      18              0.0000000000
      2286        18  POPC      H13C           -8.7287455241      -15.9041146816       17.3663429039  MEMB      18              0.0000000000
      2287        18  POPC      C14            -8.0585158432      -18.0380126286       18.7588152318  MEMB      18              0.0000000000
      2288        18  POPC      H14A           -9.1195866552      -17.8665960711       18.8190758558  MEMB      18              0.0000000000
      2289        18  POPC      H14B           -7.8368596457      -18.6554432236       17.8860679840  MEMB      18              0.0000000000
      2290        18  POPC      H14C           -7.7159755835      -18.6408748992       19.6024834569  MEMB      18              0.0000000000
      2291        18  POPC      C15            -7.5608757842      -15.9378552692       19.9127511798  MEMB      18              0.0000000000
      2292        18  POPC      H15A           -8.6206366671      -15.7856429773       20.0712655480  MEMB      18              0.0000000000
      2293        18  POPC      H15B           -7.0932607791      -14.9710793249       19.8441222780  MEMB      18              0.0000000000
      2294        18  POPC      H15C           -7.1692324048      -16.4538619344       20.7849672188  MEMB      18              0.0000000000
      2295        18  POPC      C11            -5.0670746873      -17.6777096313       19.7658271585  MEMB      18              0.0000000000
      2296        18  POPC      H11A           -5.1461973070      -17.0109527593       20.6497969338  MEMB      18              0.0000000000
      2297        18  POPC      H11B           -3.9796231914      -17.7156037783       19.5064536496  MEMB      18              0.0000000000
      2298        18  POPC      P              -5.0780454104      -20.2149236099       19.2052064557  MEMB      18              0.0000000000
      2299        18  POPC      O13            -5.5757332728      -21.4802695038       19.7871877796  MEMB      18              0.0000000000
      2300        18  POPC      O14            -3.6092517680      -20.0713151594       19.0478751172  MEMB      18              0.0000000000
      2301        18  POPC      O12            -5.5933528579      -18.9712135266       20.0691500198  MEMB      18              0.0000000000
      2302        18  POPC      O11            -5.8220576443      -19.9260684036       17.8329167570  MEMB      18              0.0000000000
      2303        18  POPC      C1             -6.7661215272      -20.8981373038       17.3270723417  MEMB      18              0.0000000000
      2304        18  POPC      HA             -7.4572188250      -20.3895753119       16.6207608554  MEMB      18              0.0000000000
      2305        18  POPC      HB             -7.4135433138      -21.3175812460       18.1338032196  MEMB      18              0.0000000000
      2306        18  POPC      C2             -6.1261030084      -22.0928607090       16.5425391841  MEMB      18              0.0000000000
      2307        18  POPC      HS             -6.1801280512      -22.9820014508       17.2150440981  MEMB      18              0.0000000000
      2308        18  POPC      O21            -4.7660419556      -21.7943481729       16.2205317073  MEMB      18              0.0000000000
      2309        18  POPC      C21            -3.9535863465      -22.7900454333       16.0249421698  MEMB      18              0.0000000000
      2310        18  POPC      O22            -4.1370295557      -23.9690317302       16.2958916674  MEMB      18              0.0000000000
      2311        18  POPC      C22            -2.7113927475      -22.2373561509       15.3755080738  MEMB      18              0.0000000000
      2312        18  POPC      H2R            -2.1323919657      -23.1034547041       14.9892633338  MEMB      18              0.0000000000
      2313        18  POPC      H2S            -2.1110237223      -21.7124743149       16.1476630636  MEMB      18              0.0000000000
      2314        18  POPC      C3             -6.9129613213      -22.4282913553       15.2342339833  MEMB      18              0.0000000000
      2315        18  POPC      HX             -7.9463789722      -22.7117778813       15.5445352782  MEMB      18              0.0000000000
      2316        18  POPC      HY             -6.4304965526      -23.3074582891       14.7524820724  MEMB      18              0.0000000000
      2317        18  POPC      O31            -6.8988205658      -21.3196224839       14.3037552914  MEMB      18              0.0000000000
      2318        18  POPC      C31            -7.9293198800      -21.2596940787       13.4655381586  MEMB      18              0.0000000000
      2319        18  POPC      O32            -8.9025617395      -21.9950987188       13.4862255378  MEMB      18              0.0000000000
      2320        18  POPC      C32            -7.7397016688      -20.1068047293       12.4845429094  MEMB      18              0.0000000000
      2321        18  POPC      H2X            -6.7584885490      -20.2264906114       11.9860196426  MEMB      18              0.0000000000
      2322        18  POPC      H2Y            -7.7286731679      -19.1603708086       13.0679375385  MEMB      18              0.0000000000
      2323        18  POPC      C23            -3.1136486869      -21.3427374444       14.1893345423  MEMB      18              0.0000000000
      2324        18  POPC      H3R            -3.4194941100      -20.3265458635       14.5456517421  MEMB      18              0.0000000000
      2325        18  POPC      H3S            -3.9351847509      -21.7881186245       13.5952748548  MEMB      18              0.0000000000
      2326        18  POPC      C24            -1.9324156787      -21.2038524041       13.2738410288  MEMB      18              0.0000000000
      2327        18  POPC      H4R            -1.3444160249      -22.1177450619       13.0697492495  MEMB      18              0.0000000000
      2328        18  POPC      H4S            -1.3082677645      -20.6787610295       13.9513418820  MEMB      18              0.0000000000
      2329        18  POPC      C25            -2.1082211224      -20.4027760883       11.9981379724  MEMB      18              0.0000000000
      2330        18  POPC      H5R            -1.1379816988      -19.9003112006       11.9817229480  MEMB      18              0.0000000000
      2331        18  POPC      H5S            -2.8630312950      -19.5911851923       11.9699492232  MEMB      18              0.0000000000
      2332        18  POPC      C26            -2.2217676515      -21.3889197893       10.8502566685  MEMB      18              0.0000000000
      2333        18  POPC      H6R            -3.2328622505      -21.8259482113       10.8860305275  MEMB      18              0.0000000000
      2334        18  POPC      H6S            -1.4552349128      -22.1842126034       11.0484420738  MEMB      18              0.0000000000
      2335        18  POPC      C27            -1.8804838927      -20.9245556463        9.4392571703  MEMB      18              0.0000000000
      2336        18  POPC      H7R            -2.0559834044      -21.7853074156        8.7697071798  MEMB      18              0.0000000000
      2337        18  POPC      H7S            -0.7818321861      -20.8443402706        9.5123052934  MEMB      18              0.0000000000
      2338        18  POPC      C28            -2.5803292286      -19.6673402405        8.8528517760  MEMB      18              0.0000000000
      2339        18  POPC      H8R            -2.0329473829      -19.3287193169        7.9391963681  MEMB      18              0.0000000000
      2340        18  POPC      H8S            -2.6184007828      -18.7712679516        9.4815066977  MEMB      18              0.0000000000
      2341        18  POPC      C29            -4.0412395410      -19.7874630382        8.7366430372  MEMB      18              0.0000000000
      2342        18  POPC      H91            -4.5900641443      -19.2857817032        9.5471148914  MEMB      18              0.0000000000
      2343        18  POPC      C210           -4.6833946016      -20.4604244790        7.7988135434  MEMB      18              0.0000000000
      2344        18  POPC      H101           -5.7756576835      -20.4597830852        7.8392187935  MEMB      18              0.0000000000
      2345        18  POPC      C211           -4.0325199590      -21.2240533928        6.6833474981  MEMB      18              0.0000000000
      2346        18  POPC      H11R           -4.2836222269      -22.3001663025        6.7619336239  MEMB      18              0.0000000000
      2347        18  POPC      H11S           -2.9215099690      -21.1291610047        6.7128995015  MEMB      18              0.0000000000
      2348        18  POPC      C212           -4.4956178015      -20.7301745576        5.3236706191  MEMB      18              0.0000000000
      2349        18  POPC      H12R           -5.5337144335      -20.3239633643        5.3834043899  MEMB      18              0.0000000000
      2350        18  POPC      H12S           -4.5219729971      -21.5384295913        4.5632193120  MEMB      18              0.0000000000
      2351        18  POPC      C213           -3.5951060524      -19.5972760509        4.8388470039  MEMB      18              0.0000000000
      2352        18  POPC      H13R           -3.4189497230      -18.8954933339        5.6815837629  MEMB      18              0.0000000000
      2353        18  POPC      H13S           -4.2133574868      -19.1590371329        4.0327710292  MEMB      18              0.0000000000
      2354        18  POPC      C214           -2.2284649710      -19.9035366649        4.1967296182  MEMB      18              0.0000000000
      2355        18  POPC      H14R           -1.6796727779      -20.4747797738        4.9654061423  MEMB      18              0.0000000000
      2356        18  POPC      H14S           -1.4581507038      -19.1594747330        3.9384425685  MEMB      18              0.0000000000
      2357        18  POPC      C215           -2.3851585608      -20.5415447986        2.8297207051  MEMB      18              0.0000000000
      2358        18  POPC      H15R           -2.7752075200      -21.2137071882        3.5770636054  MEMB      18              0.0000000000
      2359        18  POPC      H15S           -1.4217099465      -20.8518416974        2.3816631611  MEMB      18              0.0000000000
      2360        18  POPC      C216           -3.5915242749      -20.7581757882        1.8841403393  MEMB      18              0.0000000000
      2361        18  POPC      H16R           -4.5407083921      -20.5749644503        2.4452843568  MEMB      18              0.0000000000
      2362        18  POPC      H16S           -3.6835258891      -21.7263761989        1.3782568168  MEMB      18              0.0000000000
      2363        18  POPC      C217           -3.3493020033      -19.8439298305        0.7331966604  MEMB      18              0.0000000000
      2364        18  POPC      H17R           -3.5532402531      -19.1591771188        1.5686408926  MEMB      18              0.0000000000
      2365        18  POPC      H17S           -4.1584527204      -19.5457975498        0.0579602606  MEMB      18              0.0000000000
      2366        18  POPC      C218           -1.9189342659      -19.7747664919        0.0753250825  MEMB      18              0.0000000000
      2367        18  POPC      H18R           -1.0590657340      -19.7019110650        0.7801966951  MEMB      18              0.0000000000
      2368        18  POPC      H18S           -1.7872916089      -18.8789245752       -0.5699696570  MEMB      18              0.0000000000
      2369        18  POPC      H18T           -1.7154991495      -20.6278229410       -0.5496251855  MEMB      18              0.0000000000
      2370        18  POPC      C33            -8.8746646628      -20.0390820503       11.4362102204  MEMB      18              0.0000000000
      2371        18  POPC      H3X            -8.8749787770      -19.0135406169       11.0005886725  MEMB      18              0.0000000000
      2372        18  POPC      H3Y            -9.8713295232      -20.1987957225       11.9078793562  MEMB      18              0.0000000000
      2373        18  POPC      C34            -8.6901989533      -20.9919011725       10.2505497100  MEMB      18              0.0000000000
      2374        18  POPC      H4X            -8.3744791518      -22.0082887309       10.5834430904  MEMB      18              0.0000000000
      2375        18  POPC      H4Y            -7.8950498042      -20.5734536662        9.5981589580  MEMB      18              0.0000000000
      2376        18  POPC      C35            -9.9735008147      -21.1173123955        9.4272868572  MEMB      18              0.0000000000
      2377        18  POPC      H5X           -10.4259550679      -20.1266053158        9.2269018589  MEMB      18              0.0000000000
      2378        18  POPC      H5Y           -10.7027865649      -21.6604213278       10.0670722102  MEMB      18              0.0000000000
      2379        18  POPC      C36            -9.7608135786      -21.8477895004        8.0941692123  MEMB      18              0.0000000000
      2380        18  POPC      H6X           -10.7447974594      -21.9623325295        7.5747167146  MEMB      18              0.0000000000
      2381        18  POPC      H6Y            -9.3562979144      -22.8666972931        8.3156522769  MEMB      18              0.0000000000
      2382        18  POPC      C37            -8.8948914355      -21.1656705507        7.0577487140  MEMB      18              0.0000000000
      2383        18  POPC      H7X            -8.9416811225      -21.8378020543        6.1691664977  MEMB      18              0.0000000000
      2384        18  POPC      H7Y            -7.8462993195      -21.1382596153        7.4139768225  MEMB      18              0.0000000000
      2385        18  POPC      C38            -9.4088962543      -19.7787244636        6.6541494012  MEMB      18              0.0000000000
      2386        18  POPC      H8X            -9.4178397321      -19.0805252292        7.5192227303  MEMB      18              0.0000000000
      2387        18  POPC      H8Y           -10.4577751074      -19.8680868691        6.2832460914  MEMB      18              0.0000000000
      2388        18  POPC      C39            -8.5614239999      -19.1722079011        5.5380255921  MEMB      18              0.0000000000
      2389        18  POPC      H9X            -7.5173922705      -19.0407169252        5.8988859025  MEMB      18              0.0000000000
      2390        18  POPC      H9Y            -8.9750018672      -18.1666816110        5.2966260193  MEMB      18              0.0000000000
      2391        18  POPC      C310           -8.5896478929      -20.0421652385        4.2773971607  MEMB      18              0.0000000000
      2392        18  POPC      H10X           -9.6584801408      -20.2780993085        4.0598782119  MEMB      18              0.0000000000
      2393        18  POPC      H10Y           -8.0634832933      -21.0066251709        4.4460326763  MEMB      18              0.0000000000
      2394        18  POPC      C311           -7.9818238430      -19.3391374257        3.0659449817  MEMB      18              0.0000000000
      2395        18  POPC      H11X           -6.9296223012      -19.0423027769        3.2661444212  MEMB      18              0.0000000000
      2396        18  POPC      H11Y           -8.5754999925      -18.4074418234        2.9103430552  MEMB      18              0.0000000000
      2397        18  POPC      C312           -8.0296497744      -20.2223658661        1.8142458918  MEMB      18              0.0000000000
      2398        18  POPC      H12X           -9.0769620052      -20.5877817155        1.6916718371  MEMB      18              0.0000000000
      2399        18  POPC      H12Y           -7.3468170351      -21.0931964823        1.8794545473  MEMB      18              0.0000000000
      2400        18  POPC      C313           -7.7518376085      -19.4622909009        0.5367050773  MEMB      18              0.0000000000
      2401        18  POPC      H13X           -6.6731341891      -19.3092739741        0.3172027944  MEMB      18              0.0000000000
      2402        18  POPC      H13Y           -8.2223169204      -18.4714630766        0.7353172046  MEMB      18              0.0000000000
      2403        18  POPC      C314           -8.4689509962      -20.1325801179       -0.6425633085  MEMB      18              0.0000000000
      2404        18  POPC      H14X           -9.5495465437      -19.8717559846       -0.5046427924  MEMB      18              0.0000000000
      2405        18  POPC      H14Y           -8.3397427186      -21.2177467390       -0.6927397200  MEMB      18              0.0000000000
      2406        18  POPC      C315           -8.0814998737      -19.6008827864       -1.9734577224  MEMB      18              0.0000000000
      2407        18  POPC      H15X           -8.4038405952      -20.0980806627       -2.9052260087  MEMB      18              0.0000000000
      2408        18  POPC      H15Y           -6.9674053015      -19.4511393903       -2.0628335037  MEMB      18              0.0000000000
      2409        18  POPC      C316           -8.8407977534      -18.3413372670       -1.9541370669  MEMB      18              0.0000000000
      2410        18  POPC      H16X           -8.1680833287      -17.8260744006       -1.2582400437  MEMB      18              0.0000000000
      2411        18  POPC      H16Y           -9.7482268137      -18.0612302909       -1.4258608095  MEMB      18              0.0000000000
      2412        18  POPC      H16Z           -8.8605901484      -17.9538028735       -2.9872038468  MEMB      18              0.0000000000
      2413        19  POPC      N              18.8439192040       -2.8329300239       19.2078636541  MEMB      19              0.0000000000
      2414        19  POPC      C12            18.9994459598       -1.7125780041       20.2293344879  MEMB      19              0.0000000000
      2415        19  POPC      H12A           19.0245322663       -2.1547073147       21.2169432841  MEMB      19              0.0000000000
      2416        19  POPC      H12B           18.1314266925       -1.0633058649       20.2211303311  MEMB      19              0.0000000000
      2417        19  POPC      C13            20.0913158584       -3.6287971496       19.1991413942  MEMB      19              0.0000000000
      2418        19  POPC      H13A           20.9348869142       -3.0454310440       18.8386424379  MEMB      19              0.0000000000
      2419        19  POPC      H13B           20.2977659300       -3.9628385146       20.2082575923  MEMB      19              0.0000000000
      2420        19  POPC      H13C           19.9545588857       -4.5086312584       18.5810121771  MEMB      19              0.0000000000
      2421        19  POPC      C14            17.6919539159       -3.6696716058       19.6323704427  MEMB      19              0.0000000000
      2422        19  POPC      H14A           16.7324434438       -3.1930328235       19.4258615598  MEMB      19              0.0000000000
      2423        19  POPC      H14B           17.6816847666       -4.6081366554       19.1077970897  MEMB      19              0.0000000000
      2424        19  POPC      H14C           17.7375630700       -3.8726929133       20.6968065837  MEMB      19              0.0000000000
      2425        19  POPC      C15            18.6838549700       -2.3191881536       17.8092985103  MEMB      19              0.0000000000
      2426        19  POPC      H15A           17.9825467817       -1.4983582886       17.7426779219  MEMB      19              0.0000000000
      2427        19  POPC      H15B           18.4514414908       -3.0910193423       17.0901628243  MEMB      19              0.0000000000
      2428        19  POPC      H15C           19.6408127523       -1.8714712183       17.5152116779  MEMB      19              0.0000000000
      2429        19  POPC      C11            20.2403205334       -0.8057304207       20.1493702045  MEMB      19              0.0000000000
      2430        19  POPC      H11A           21.1532702786       -1.3182448579       20.5156709915  MEMB      19              0.0000000000
      2431        19  POPC      H11B           20.0355380427        0.0189658719       20.8752226295  MEMB      19              0.0000000000
      2432        19  POPC      P              20.7746502962        1.1798050113       18.6102583627  MEMB      19              0.0000000000
      2433        19  POPC      O13            21.9441433035        1.5863312145       19.4174460365  MEMB      19              0.0000000000
      2434        19  POPC      O14            19.5327249550        1.9504403249       18.8240161803  MEMB      19              0.0000000000
      2435        19  POPC      O12            20.4505853744       -0.3516388032       18.8172465534  MEMB      19              0.0000000000
      2436        19  POPC      O11            21.0844805466        1.2274478759       17.0835445968  MEMB      19              0.0000000000
      2437        19  POPC      C1             20.0134927591        0.7904146313       16.2275360060  MEMB      19              0.0000000000
      2438        19  POPC      HA             18.9880456117        0.9667742282       16.6443642773  MEMB      19              0.0000000000
      2439        19  POPC      HB             20.1419155065       -0.2823787899       15.9822407562  MEMB      19              0.0000000000
      2440        19  POPC      C2             20.0303896318        1.6092291720       14.9488732608  MEMB      19              0.0000000000
      2441        19  POPC      HS             19.4092443757        1.1061647434       14.1616336027  MEMB      19              0.0000000000
      2442        19  POPC      O21            21.3691888043        1.9001002171       14.5878502684  MEMB      19              0.0000000000
      2443        19  POPC      C21            21.7355890862        1.0481521425       13.7760689241  MEMB      19              0.0000000000
      2444        19  POPC      O22            21.0883778600        0.1211886663       13.2947133447  MEMB      19              0.0000000000
      2445        19  POPC      C22            23.1000321598        1.3827690843       13.4881536910  MEMB      19              0.0000000000
      2446        19  POPC      H2R            23.7315375868        1.2286279645       14.4131264801  MEMB      19              0.0000000000
      2447        19  POPC      H2S            23.3163499755        2.4030061499       13.1024897762  MEMB      19              0.0000000000
      2448        19  POPC      C3             19.3948309709        2.9257266652       15.1471430064  MEMB      19              0.0000000000
      2449        19  POPC      HX             20.0886951419        3.2388044263       15.9469328846  MEMB      19              0.0000000000
      2450        19  POPC      HY             18.3375973104        2.8975008107       15.4660088138  MEMB      19              0.0000000000
      2451        19  POPC      O31            19.6592794048        3.7448082644       14.0347662059  MEMB      19              0.0000000000
      2452        19  POPC      C31            18.7487912663        3.7627554739       13.1069467399  MEMB      19              0.0000000000
      2453        19  POPC      O32            17.5593548062        3.5343793081       13.2119098652  MEMB      19              0.0000000000
      2454        19  POPC      C32            19.4562905612        4.4037165991       11.9832340534  MEMB      19              0.0000000000
      2455        19  POPC      H2X            20.4251354304        3.9573930954       11.7059416980  MEMB      19              0.0000000000
      2456        19  POPC      H2Y            19.7011393504        5.3593620078       12.5173494530  MEMB      19              0.0000000000
      2457        19  POPC      C23            23.2276279284        0.3592244440       12.3877251504  MEMB      19              0.0000000000
      2458        19  POPC      H3R            23.0843785253       -0.7281890334       12.5472562250  MEMB      19              0.0000000000
      2459        19  POPC      H3S            24.2219087252        0.4932172051       12.7499059207  MEMB      19              0.0000000000
      2460        19  POPC      C24            22.8569482063        0.7925889250       10.9294945722  MEMB      19              0.0000000000
      2461        19  POPC      H4R            23.2528465506        1.8202443509       10.7602781880  MEMB      19              0.0000000000
      2462        19  POPC      H4S            21.7670629766        0.9007948021       10.8445357056  MEMB      19              0.0000000000
      2463        19  POPC      C25            23.4030387612       -0.1798701243        9.8319008447  MEMB      19              0.0000000000
      2464        19  POPC      H5R            23.1063068034       -1.2233248029       10.0118379906  MEMB      19              0.0000000000
      2465        19  POPC      H5S            24.4681771942       -0.2564234374        9.8655197837  MEMB      19              0.0000000000
      2466        19  POPC      C26            23.5512067245        0.2858910314        8.3766163539  MEMB      19              0.0000000000
      2467        19  POPC      H6R            23.8311637478        1.3577859806        8.3992787782  MEMB      19              0.0000000000
      2468        19  POPC      H6S            22.5562699714        0.2303824103        7.9199639549  MEMB      19              0.0000000000
      2469        19  POPC      C27            24.6194079719       -0.5244052195        7.5571222605  MEMB      19              0.0000000000
      2470        19  POPC      H7R            24.4054037441       -1.6031852158        7.7086986329  MEMB      19              0.0000000000
      2471        19  POPC      H7S            25.6823758477       -0.4391427034        7.8800717800  MEMB      19              0.0000000000
      2472        19  POPC      C28            24.5675933262       -0.1720812631        6.0550338512  MEMB      19              0.0000000000
      2473        19  POPC      H8R            23.4945614259       -0.2281293807        5.8027734575  MEMB      19              0.0000000000
      2474        19  POPC      H8S            25.1563537258       -0.9011149397        5.4626997417  MEMB      19              0.0000000000
      2475        19  POPC      C29            25.0306842595        1.2147163216        5.7536700322  MEMB      19              0.0000000000
      2476        19  POPC      H91            26.0534687350        1.4178784130        6.1085240704  MEMB      19              0.0000000000
      2477        19  POPC      C210           24.4093253198        2.1736532404        5.0510910966  MEMB      19              0.0000000000
      2478        19  POPC      H101           24.7138766511        3.2253112037        5.1232029152  MEMB      19              0.0000000000
      2479        19  POPC      C211           23.1227652963        2.1322161405        4.3689164989  MEMB      19              0.0000000000
      2480        19  POPC      H11R           22.8696165946        1.0825612039        4.1265809280  MEMB      19              0.0000000000
      2481        19  POPC      H11S           23.3129204346        2.6865161787        3.4263024152  MEMB      19              0.0000000000
      2482        19  POPC      C212           21.9921965757        2.8234591566        5.1189633323  MEMB      19              0.0000000000
      2483        19  POPC      H12R           22.2246504594        3.9003066103        5.2848368091  MEMB      19              0.0000000000
      2484        19  POPC      H12S           21.8468431578        2.3488213318        6.1175041579  MEMB      19              0.0000000000
      2485        19  POPC      C213           20.7244282923        2.6381600379        4.2898157277  MEMB      19              0.0000000000
      2486        19  POPC      H13R           19.8656070733        3.1685420175        4.7433442604  MEMB      19              0.0000000000
      2487        19  POPC      H13S           20.5118468998        1.5419730100        4.3047174041  MEMB      19              0.0000000000
      2488        19  POPC      C214           20.8768279792        3.0574113304        2.8287197534  MEMB      19              0.0000000000
      2489        19  POPC      H14R           21.5663788722        2.3592155113        2.3004021231  MEMB      19              0.0000000000
      2490        19  POPC      H14S           21.3125062201        4.0716802757        2.7040598727  MEMB      19              0.0000000000
      2491        19  POPC      C215           19.5669467445        3.0485537395        2.0801502660  MEMB      19              0.0000000000
      2492        19  POPC      H15R           18.8452190720        3.7915193671        2.4795689727  MEMB      19              0.0000000000
      2493        19  POPC      H15S           19.0805848690        2.0439239855        2.1857713255  MEMB      19              0.0000000000
      2494        19  POPC      C216           19.9242852404        3.3852513276        0.6456063113  MEMB      19              0.0000000000
      2495        19  POPC      H16R           20.9390935879        3.0883088081        0.3113185694  MEMB      19              0.0000000000
      2496        19  POPC      H16S           19.6716531141        4.4380086251        0.3743521068  MEMB      19              0.0000000000
      2497        19  POPC      C217           19.1555390195        2.5310255073       -0.2150305737  MEMB      19              0.0000000000
      2498        19  POPC      H17R           18.1857407330        3.1157426013       -0.1397470383  MEMB      19              0.0000000000
      2499        19  POPC      H17S           19.0713270784        1.4705882053        0.1184735164  MEMB      19              0.0000000000
      2500        19  POPC      C218           19.4968631632        2.5461177178       -1.6336613335  MEMB      19              0.0000000000
      2501        19  POPC      H18R           19.2163109646        3.5691334853       -1.9699268637  MEMB      19              0.0000000000
      2502        19  POPC      H18S           18.6935605653        1.8054857426       -1.8158682386  MEMB      19              0.0000000000
      2503        19  POPC      H18T           19.7706853395        1.8161685316       -2.3985257324  MEMB      19              0.0000000000
      2504        19  POPC      C33            18.5460179237        4.7428364645       10.8078294309  MEMB      19              0.0000000000
      2505        19  POPC      H3X            19.1178144070        5.2863052489       10.0566391004  MEMB      19              0.0000000000
      2506        19  POPC      H3Y            17.7871312111        5.3772087651       11.2466543450  MEMB      19              0.0000000000
      2507        19  POPC      C34            18.0506144073        3.7569733022        9.8065129705  MEMB      19              0.0000000000
      2508        19  POPC      H4X            17.5426208914        4.3000694439        8.9733410089  MEMB      19              0.0000000000
      2509        19  POPC      H4Y            17.2872973686        3.1328044474       10.2978860540  MEMB      19              0.0000000000
      2510        19  POPC      C35            19.1926823224        2.9922911871        9.1608067328  MEMB      19              0.0000000000
      2511        19  POPC      H5X            19.7397846556        2.4438083599        9.9564566276  MEMB      19              0.0000000000
      2512        19  POPC      H5Y            19.9354908195        3.6441742561        8.6388570386  MEMB      19              0.0000000000
      2513        19  POPC      C36            18.5329975368        2.0629819722        8.1632346982  MEMB      19              0.0000000000
      2514        19  POPC      H6X            18.3843557339        2.6147515774        7.2089229152  MEMB      19              0.0000000000
      2515        19  POPC      H6Y            17.5231087254        1.8068762360        8.5676947358  MEMB      19              0.0000000000
      2516        19  POPC      C37            19.2981303273        0.7675205097        7.9683159984  MEMB      19              0.0000000000
      2517        19  POPC      H7X            19.5297535580        0.3342399044        8.9695845027  MEMB      19              0.0000000000
      2518        19  POPC      H7Y            20.2610266454        0.9878678505        7.4600590101  MEMB      19              0.0000000000
      2519        19  POPC      C38            18.4791269412       -0.2590102883        7.1775091895  MEMB      19              0.0000000000
      2520        19  POPC      H8X            18.4944562127        0.0138581218        6.1000583798  MEMB      19              0.0000000000
      2521        19  POPC      H8Y            17.4212849913       -0.1983803376        7.5235776351  MEMB      19              0.0000000000
      2522        19  POPC      C39            18.9837367895       -1.6982222993        7.3620691558  MEMB      19              0.0000000000
      2523        19  POPC      H9X            18.4255162206       -2.3864921415        6.6907708934  MEMB      19              0.0000000000
      2524        19  POPC      H9Y            18.7713797287       -2.0066847557        8.4118486087  MEMB      19              0.0000000000
      2525        19  POPC      C310           20.4844113592       -1.8680166289        7.0865092875  MEMB      19              0.0000000000
      2526        19  POPC      H10X           20.7767715626       -2.9172869652        7.3160421088  MEMB      19              0.0000000000
      2527        19  POPC      H10Y           21.0575164996       -1.2000405069        7.7599097730  MEMB      19              0.0000000000
      2528        19  POPC      C311           20.8760529026       -1.6106586721        5.6324751321  MEMB      19              0.0000000000
      2529        19  POPC      H11X           21.9845989414       -1.6652507300        5.5408042700  MEMB      19              0.0000000000
      2530        19  POPC      H11Y           20.5679551881       -0.5969244081        5.2932069318  MEMB      19              0.0000000000
      2531        19  POPC      C312           20.2843063486       -2.6797278153        4.7168863734  MEMB      19              0.0000000000
      2532        19  POPC      H12X           19.1962722187       -2.5091746617        4.5562885544  MEMB      19              0.0000000000
      2533        19  POPC      H12Y           20.4483577583       -3.6818789764        5.1653003534  MEMB      19              0.0000000000
      2534        19  POPC      C313           20.9313797119       -2.6384199795        3.3687686638  MEMB      19              0.0000000000
      2535        19  POPC      H13X           20.6300536319       -3.4989556088        2.7343813704  MEMB      19              0.0000000000
      2536        19  POPC      H13Y           22.0473513566       -2.7214171818        3.4846155138  MEMB      19              0.0000000000
      2537        19  POPC      C314           20.4963804610       -1.3525607933        2.6495743497  MEMB      19              0.0000000000
      2538        19  POPC      H14X           20.9560440279       -0.4430161161        3.1411807051  MEMB      19              0.0000000000
      2539        19  POPC      H14Y           19.4272418307       -1.1682711432        2.4747078694  MEMB      19              0.0000000000
      2540        19  POPC      C315           21.0328586631       -1.4194254945        1.2794706296  MEMB      19              0.0000000000
      2541        19  POPC      H15X           21.3010243208       -2.2937693716        0.6513818043  MEMB      19              0.0000000000
      2542        19  POPC      H15Y           21.9172527310       -1.6373443448        1.8439558059  MEMB      19              0.0000000000
      2543        19  POPC      C316           21.0420901017       -0.0588490309        0.6222221323  MEMB      19              0.0000000000
      2544        19  POPC      H16X           20.2320331433       -0.1550694894       -0.1185725538  MEMB      19              0.0000000000
      2545        19  POPC      H16Y           21.9802339351        0.2154785575        0.0976439988  MEMB      19              0.0000000000
      2546        19  POPC      H16Z           20.9851009460        0.8607397516        1.1996821839  MEMB      19              0.0000000000
      2547        20  POPC      N             -18.8385404248       11.1909697708       20.3763170363  MEMB      20              0.0000000000
      2548        20  POPC      C12           -17.7246418816       10.1576825829       20.5980212917  MEMB      20              0.0000000000
      2549        20  POPC      H12A          -18.0735416605        9.4240750159       21.3123341990  MEMB      20              0.0000000000
      2550        20  POPC      H12B          -16.8749438092       10.6518724778       21.0574685070  MEMB      20              0.0000000000
      2551        20  POPC      C13           -20.1765031047       10.5160171819       20.2938460840  MEMB      20              0.0000000000
      2552        20  POPC      H13A          -20.9714354034       11.2410185551       20.2029223050  MEMB      20              0.0000000000
      2553        20  POPC      H13B          -20.2247460490        9.8189445266       19.4669836235  MEMB      20              0.0000000000
      2554        20  POPC      H13C          -20.4049136509        9.9529510904       21.1911452404  MEMB      20              0.0000000000
      2555        20  POPC      C14           -18.8700434334       12.1800700012       21.4984600065  MEMB      20              0.0000000000
      2556        20  POPC      H14A          -19.4567941404       13.0423853277       21.2097202848  MEMB      20              0.0000000000
      2557        20  POPC      H14B          -19.3022322577       11.7596567671       22.4024675192  MEMB      20              0.0000000000
      2558        20  POPC      H14C          -17.8688234621       12.5235104064       21.7516960773  MEMB      20              0.0000000000
      2559        20  POPC      C15           -18.6023026808       11.9363239662       19.1078800191  MEMB      20              0.0000000000
      2560        20  POPC      H15A          -17.6070551954       12.3766488994       19.1010003284  MEMB      20              0.0000000000
      2561        20  POPC      H15B          -19.3636709129       12.6745586593       18.9241580975  MEMB      20              0.0000000000
      2562        20  POPC      H15C          -18.5630393302       11.2177315485       18.2869305437  MEMB      20              0.0000000000
      2563        20  POPC      C11           -17.1020748206        9.4195042953       19.3751088524  MEMB      20              0.0000000000
      2564        20  POPC      H11A          -17.8913702844        8.9166936296       18.7776744621  MEMB      20              0.0000000000
      2565        20  POPC      H11B          -16.4125514466        8.6270825149       19.7690438055  MEMB      20              0.0000000000
      2566        20  POPC      P             -15.2028167819        9.9096901009       17.5850061395  MEMB      20              0.0000000000
      2567        20  POPC      O13           -14.4595428190        8.8300832402       18.2640804117  MEMB      20              0.0000000000
      2568        20  POPC      O14           -14.4662223763       11.1276982458       17.2059524183  MEMB      20              0.0000000000
      2569        20  POPC      O12           -16.3874964224       10.3455701721       18.5649990565  MEMB      20              0.0000000000
      2570        20  POPC      O11           -15.9421029274        9.3767741437       16.2926018368  MEMB      20              0.0000000000
      2571        20  POPC      C1            -16.1871113550        7.9875823592       16.1055913294  MEMB      20              0.0000000000
      2572        20  POPC      HA            -16.5310351210        7.4967346078       17.0465263106  MEMB      20              0.0000000000
      2573        20  POPC      HB            -15.2426499904        7.4978881712       15.7786149700  MEMB      20              0.0000000000
      2574        20  POPC      C2            -17.2833842929        7.7406199824       15.0312879457  MEMB      20              0.0000000000
      2575        20  POPC      HS            -17.3379779951        6.6393210636       14.8460649311  MEMB      20              0.0000000000
      2576        20  POPC      O21           -17.0085151609        8.4589811348       13.8243637632  MEMB      20              0.0000000000
      2577        20  POPC      C21           -16.1397358150        7.8839289284       13.0538433576  MEMB      20              0.0000000000
      2578        20  POPC      O22           -15.6383488973        6.7849626033       13.2106600259  MEMB      20              0.0000000000
      2579        20  POPC      C22           -15.8334286692        8.8437000345       11.9189851287  MEMB      20              0.0000000000
      2580        20  POPC      H2R           -14.8014439245        9.1361877231       12.0931736557  MEMB      20              0.0000000000
      2581        20  POPC      H2S           -16.3205625877        9.8178853319       12.0351193403  MEMB      20              0.0000000000
      2582        20  POPC      C3            -18.6838996102        8.2039468489       15.4991896907  MEMB      20              0.0000000000
      2583        20  POPC      HX            -18.9332328480        7.6465615527       16.4236173008  MEMB      20              0.0000000000
      2584        20  POPC      HY            -19.4018560029        7.8672468970       14.7069740683  MEMB      20              0.0000000000
      2585        20  POPC      O31           -18.6992399627        9.6353126374       15.7684312649  MEMB      20              0.0000000000
      2586        20  POPC      C31           -19.3693733253       10.3568990740       14.8756773775  MEMB      20              0.0000000000
      2587        20  POPC      O32           -20.1955623767        9.9117053126       14.1040888169  MEMB      20              0.0000000000
      2588        20  POPC      C32           -18.9692104670       11.8230671880       14.8816175276  MEMB      20              0.0000000000
      2589        20  POPC      H2X           -17.8987220763       11.9119467810       15.1570143164  MEMB      20              0.0000000000
      2590        20  POPC      H2Y           -19.5873098864       12.3675710208       15.6269187228  MEMB      20              0.0000000000
      2591        20  POPC      C23           -15.9997235237        8.2731634288       10.4874767275  MEMB      20              0.0000000000
      2592        20  POPC      H3R           -17.0643595814        8.1499617214       10.2342149247  MEMB      20              0.0000000000
      2593        20  POPC      H3S           -15.5265314696        7.2655220316       10.3499609888  MEMB      20              0.0000000000
      2594        20  POPC      C24           -15.2879384534        9.2197958918        9.5303894651  MEMB      20              0.0000000000
      2595        20  POPC      H4R           -14.2408207179        9.4063241452        9.8571021066  MEMB      20              0.0000000000
      2596        20  POPC      H4S           -15.7260183815       10.2312306977        9.5665903925  MEMB      20              0.0000000000
      2597        20  POPC      C25           -15.2557581091        8.7323692249        8.1000428534  MEMB      20              0.0000000000
      2598        20  POPC      H5R           -16.2592366829        8.8510810073        7.6362031946  MEMB      20              0.0000000000
      2599        20  POPC      H5S           -14.9797664119        7.6560937095        7.9928597060  MEMB      20              0.0000000000
      2600        20  POPC      C26           -14.2405946300        9.6234247026        7.4116026110  MEMB      20              0.0000000000
      2601        20  POPC      H6R           -13.2025436208        9.2835113536        7.6445458531  MEMB      20              0.0000000000
      2602        20  POPC      H6S           -14.3410355483       10.6763591814        7.7200727294  MEMB      20              0.0000000000
      2603        20  POPC      C27           -14.4422014452        9.5759082625        5.9543422509  MEMB      20              0.0000000000
      2604        20  POPC      H7R           -13.9672410468       10.4714521811        5.4587196221  MEMB      20              0.0000000000
      2605        20  POPC      H7S           -15.5117943677        9.4494261796        5.6861595080  MEMB      20              0.0000000000
      2606        20  POPC      C28           -13.6880571763        8.3917757524        5.5975052167  MEMB      20              0.0000000000
      2607        20  POPC      H8R           -13.8702221232        7.3858822343        6.0329052718  MEMB      20              0.0000000000
      2608        20  POPC      H8S           -12.6335903918        8.7369587479        5.6855312810  MEMB      20              0.0000000000
      2609        20  POPC      C29           -13.9829583707        8.4018545229        4.2265081657  MEMB      20              0.0000000000
      2610        20  POPC      H91           -13.3326718727        9.1459816000        3.7338160705  MEMB      20              0.0000000000
      2611        20  POPC      C210          -14.7627339432        7.5801475658        3.5833925727  MEMB      20              0.0000000000
      2612        20  POPC      H101          -14.5179348394        7.5776530006        2.5259364494  MEMB      20              0.0000000000
      2613        20  POPC      C211          -15.5356702315        6.4494608556        4.1892383327  MEMB      20              0.0000000000
      2614        20  POPC      H11R          -15.7207748837        6.6024837864        5.2491068300  MEMB      20              0.0000000000
      2615        20  POPC      H11S          -15.1171120116        5.4297311767        4.1845679155  MEMB      20              0.0000000000
      2616        20  POPC      C212          -16.7437173745        6.2383901636        3.3267754160  MEMB      20              0.0000000000
      2617        20  POPC      H12R          -17.2515517657        5.3152924411        3.3496915384  MEMB      20              0.0000000000
      2618        20  POPC      H12S          -16.3178261309        5.8147442776        2.5471392999  MEMB      20              0.0000000000
      2619        20  POPC      C213          -17.5682676076        7.3074919373        2.6940357973  MEMB      20              0.0000000000
      2620        20  POPC      H13R          -18.2535521457        6.7400800529        2.0555036657  MEMB      20              0.0000000000
      2621        20  POPC      H13S          -17.1221631430        8.0707658277        2.0380582774  MEMB      20              0.0000000000
      2622        20  POPC      C214          -18.1789536340        7.8803067951        3.8858821250  MEMB      20              0.0000000000
      2623        20  POPC      H14R          -18.8878957083        8.6309389250        3.5230950197  MEMB      20              0.0000000000
      2624        20  POPC      H14S          -17.2977061351        8.3085530221        4.4267904174  MEMB      20              0.0000000000
      2625        20  POPC      C215          -18.8932779374        6.7677926905        4.6402851422  MEMB      20              0.0000000000
      2626        20  POPC      H15R          -19.3937746361        7.2355513816        5.4932031637  MEMB      20              0.0000000000
      2627        20  POPC      H15S          -18.1299113264        6.1670485705        5.1903879969  MEMB      20              0.0000000000
      2628        20  POPC      C216          -19.8220312379        5.9440755699        3.6674099001  MEMB      20              0.0000000000
      2629        20  POPC      H16R          -20.5356589689        5.2592788439        4.1244172035  MEMB      20              0.0000000000
      2630        20  POPC      H16S          -19.2855310011        5.2676585386        2.9621877586  MEMB      20              0.0000000000
      2631        20  POPC      C217          -20.7370679880        6.7229197084        2.7931420157  MEMB      20              0.0000000000
      2632        20  POPC      H17R          -20.1682714942        7.2611172274        2.0123106406  MEMB      20              0.0000000000
      2633        20  POPC      H17S          -21.1783251306        7.4136719053        3.4975935791  MEMB      20              0.0000000000
      2634        20  POPC      C218          -21.8022397218        5.8083060551        2.2173044565  MEMB      20              0.0000000000
      2635        20  POPC      H18R          -22.5573225811        5.5598663157        2.9978427914  MEMB      20              0.0000000000
      2636        20  POPC      H18S          -21.3405927927        4.8571497359        1.8672077385  MEMB      20              0.0000000000
      2637        20  POPC      H18T          -22.3043477027        6.3238085278        1.3790096884  MEMB      20              0.0000000000
      2638        20  POPC      C33           -19.2401026472       12.4414077612       13.4842801423  MEMB      20              0.0000000000
      2639        20  POPC      H3X           -18.8021194839       13.4637526504       13.4855427483  MEMB      20              0.0000000000
      2640        20  POPC      H3Y           -20.3355226345       12.5596042265       13.3085216847  MEMB      20              0.0000000000
      2641        20  POPC      C34           -18.6194080156       11.6603919930       12.3102183161  MEMB      20              0.0000000000
      2642        20  POPC      H4X           -19.0426521808       10.6334701152       12.2293843904  MEMB      20              0.0000000000
      2643        20  POPC      H4Y           -17.5350148199       11.5414435501       12.5146616499  MEMB      20              0.0000000000
      2644        20  POPC      C35           -18.8021542993       12.3968706440       10.9722146184  MEMB      20              0.0000000000
      2645        20  POPC      H5X           -18.3765224714       13.4149877072       11.1087245335  MEMB      20              0.0000000000
      2646        20  POPC      H5Y           -19.8874388845       12.4843867023       10.7477073048  MEMB      20              0.0000000000
      2647        20  POPC      C36           -18.0729213554       11.7223945607        9.7988547570  MEMB      20              0.0000000000
      2648        20  POPC      H6X           -18.4140338178       10.6656298972        9.7346380953  MEMB      20              0.0000000000
      2649        20  POPC      H6Y           -16.9914261234       11.7546970525       10.0531764501  MEMB      20              0.0000000000
      2650        20  POPC      C37           -18.2337695947       12.4004217970        8.4215916444  MEMB      20              0.0000000000
      2651        20  POPC      H7X           -17.8002900402       13.4234753757        8.5000235010  MEMB      20              0.0000000000
      2652        20  POPC      H7Y           -19.3076842060       12.4927623708        8.1546556370  MEMB      20              0.0000000000
      2653        20  POPC      C38           -17.4921621701       11.6684494817        7.2884724037  MEMB      20              0.0000000000
      2654        20  POPC      H8X           -17.6540157073       10.5680512071        7.3239766410  MEMB      20              0.0000000000
      2655        20  POPC      H8Y           -16.4013301230       11.8454501980        7.4323074930  MEMB      20              0.0000000000
      2656        20  POPC      C39           -17.8253896179       12.1666577589        5.8763751277  MEMB      20              0.0000000000
      2657        20  POPC      H9X           -17.8546328493       13.2757681612        5.8812785210  MEMB      20              0.0000000000
      2658        20  POPC      H9Y           -18.8200727472       11.7894243760        5.5452902797  MEMB      20              0.0000000000
      2659        20  POPC      C310          -16.7173919190       11.7056157914        4.9294675425  MEMB      20              0.0000000000
      2660        20  POPC      H10X          -16.7437138370       10.5974457936        4.9180978005  MEMB      20              0.0000000000
      2661        20  POPC      H10Y          -15.7321176658       12.0675099134        5.2936372269  MEMB      20              0.0000000000
      2662        20  POPC      C311          -16.8545009117       12.1180790149        3.4883621086  MEMB      20              0.0000000000
      2663        20  POPC      H11X          -15.9162572761       11.8132511061        2.9642553846  MEMB      20              0.0000000000
      2664        20  POPC      H11Y          -16.9482578877       13.2161891822        3.3813437833  MEMB      20              0.0000000000
      2665        20  POPC      C312          -18.0952409261       11.4726334763        2.9091388644  MEMB      20              0.0000000000
      2666        20  POPC      H12X          -18.9945209404       11.9082388306        3.3742443195  MEMB      20              0.0000000000
      2667        20  POPC      H12Y          -18.0858063295       10.3697597905        3.0597651358  MEMB      20              0.0000000000
      2668        20  POPC      C313          -18.1125100506       11.7129210171        1.4487732985  MEMB      20              0.0000000000
      2669        20  POPC      H13X          -18.0840334024       12.7997771850        1.2101466073  MEMB      20              0.0000000000
      2670        20  POPC      H13Y          -19.0896822368       11.3445086269        1.0425804943  MEMB      20              0.0000000000
      2671        20  POPC      C314          -16.8498673422       10.9996449449        0.9506947600  MEMB      20              0.0000000000
      2672        20  POPC      H14X          -16.7283345527        9.9199052939        1.2141681849  MEMB      20              0.0000000000
      2673        20  POPC      H14Y          -15.9261288010       11.6164240747        0.8705130554  MEMB      20              0.0000000000
      2674        20  POPC      C315          -17.0779586281       10.7539528496       -0.3951713830  MEMB      20              0.0000000000
      2675        20  POPC      H15X          -17.3830972731       11.7764746865       -0.7781714901  MEMB      20              0.0000000000
      2676        20  POPC      H15Y          -18.0578105157       10.2000678577       -0.2974027001  MEMB      20              0.0000000000
      2677        20  POPC      C316          -16.0055623287        9.9677159390       -1.2445943817  MEMB      20              0.0000000000
      2678        20  POPC      H16X          -15.2120818885       10.5413427027       -1.7427503785  MEMB      20              0.0000000000
      2679        20  POPC      H16Y          -16.3749118596        9.5973973328       -2.2058936616  MEMB      20              0.0000000000
      2680        20  POPC      H16Z          -15.8749301108        8.9208715347       -1.0285907326  MEMB      20              0.0000000000
      2681        21  POPC      N              19.0119833797       -7.3134720982       19.2716160334  MEMB      21              0.0000000000
      2682        21  POPC      C12            18.1519289244       -8.0516095058       20.2735191326  MEMB      21              0.0000000000
      2683        21  POPC      H12A           17.6878436295       -7.3333130532       20.9375400616  MEMB      21              0.0000000000
      2684        21  POPC      H12B           18.7411593362       -8.7181483069       20.8933709635  MEMB      21              0.0000000000
      2685        21  POPC      C13            18.2112470021       -6.6551225910       18.1814107031  MEMB      21              0.0000000000
      2686        21  POPC      H13A           17.6191857939       -7.4286125918       17.6726855362  MEMB      21              0.0000000000
      2687        21  POPC      H13B           17.4715976957       -6.0001775213       18.6040317157  MEMB      21              0.0000000000
      2688        21  POPC      H13C           18.8140454185       -6.1709614858       17.4320678234  MEMB      21              0.0000000000
      2689        21  POPC      C14            19.8016070894       -6.3367112818       20.0257523597  MEMB      21              0.0000000000
      2690        21  POPC      H14A           20.3608689196       -6.7533846304       20.8575401762  MEMB      21              0.0000000000
      2691        21  POPC      H14B           20.4918748202       -5.8367771316       19.3679083669  MEMB      21              0.0000000000
      2692        21  POPC      H14C           19.1301429273       -5.5843405293       20.4408706196  MEMB      21              0.0000000000
      2693        21  POPC      C15            19.8551690808       -8.3116642954       18.5911119220  MEMB      21              0.0000000000
      2694        21  POPC      H15A           20.6967366795       -8.5954110519       19.1951171913  MEMB      21              0.0000000000
      2695        21  POPC      H15B           20.2123667688       -7.9832376373       17.6351413676  MEMB      21              0.0000000000
      2696        21  POPC      H15C           19.2625693656       -9.2248827417       18.4422000446  MEMB      21              0.0000000000
      2697        21  POPC      C11            17.0638753019       -8.8800560117       19.6298806309  MEMB      21              0.0000000000
      2698        21  POPC      H11A           16.5952587391       -8.1496459016       18.9957901069  MEMB      21              0.0000000000
      2699        21  POPC      H11B           16.3037878413       -9.2211988928       20.3744037296  MEMB      21              0.0000000000
      2700        21  POPC      P              16.8542234454      -11.2857180336       18.7154548591  MEMB      21              0.0000000000
      2701        21  POPC      O13            15.9142107971      -11.3906034315       17.5925937767  MEMB      21              0.0000000000
      2702        21  POPC      O14            16.3539905407      -11.5705128228       20.0809609306  MEMB      21              0.0000000000
      2703        21  POPC      O12            17.5319354318       -9.8553140410       18.7190001142  MEMB      21              0.0000000000
      2704        21  POPC      O11            18.0999821890      -12.1851585398       18.3766605398  MEMB      21              0.0000000000
      2705        21  POPC      C1             19.3538986442      -11.9966418665       19.0246468574  MEMB      21              0.0000000000
      2706        21  POPC      HA             19.5272554960      -12.9133368479       19.6225009668  MEMB      21              0.0000000000
      2707        21  POPC      HB             19.3598242164      -11.1455583860       19.7418810018  MEMB      21              0.0000000000
      2708        21  POPC      C2             20.5642328397      -11.8593054209       18.0374254822  MEMB      21              0.0000000000
      2709        21  POPC      HS             21.4423367184      -11.6114269428       18.6751744536  MEMB      21              0.0000000000
      2710        21  POPC      O21            20.3623293269      -10.8574728247       17.0083067990  MEMB      21              0.0000000000
      2711        21  POPC      C21            21.4584999776      -10.4528663593       16.3512974321  MEMB      21              0.0000000000
      2712        21  POPC      O22            22.6012287917      -10.6874354329       16.7141650672  MEMB      21              0.0000000000
      2713        21  POPC      C22            21.0621084576       -9.6030517564       15.1270492309  MEMB      21              0.0000000000
      2714        21  POPC      H2R            20.4022783778       -8.7964997508       15.5017297430  MEMB      21              0.0000000000
      2715        21  POPC      H2S            20.4691681371      -10.2485930117       14.4493960508  MEMB      21              0.0000000000
      2716        21  POPC      C3             20.8091117773      -13.2430042454       17.3998207903  MEMB      21              0.0000000000
      2717        21  POPC      HX             20.9995758557      -13.9614378895       18.2190450051  MEMB      21              0.0000000000
      2718        21  POPC      HY             21.7247213900      -13.2091096998       16.7625183404  MEMB      21              0.0000000000
      2719        21  POPC      O31            19.6091830852      -13.6541990738       16.7276952587  MEMB      21              0.0000000000
      2720        21  POPC      C31            19.7718016009      -14.1289604796       15.5164751445  MEMB      21              0.0000000000
      2721        21  POPC      O32            20.8427906261      -14.4286082412       15.0321163160  MEMB      21              0.0000000000
      2722        21  POPC      C32            18.4258137739      -14.3486417431       14.8442495706  MEMB      21              0.0000000000
      2723        21  POPC      H2X            18.0249807178      -15.3130890371       15.2137534640  MEMB      21              0.0000000000
      2724        21  POPC      H2Y            18.5896224693      -14.4309871761       13.7510974451  MEMB      21              0.0000000000
      2725        21  POPC      C23            22.2284307186       -8.9354061334       14.3390267291  MEMB      21              0.0000000000
      2726        21  POPC      H3R            22.7466750523       -9.6756069489       13.6886623738  MEMB      21              0.0000000000
      2727        21  POPC      H3S            22.9889039560       -8.5750218954       15.0694086766  MEMB      21              0.0000000000
      2728        21  POPC      C24            21.7945666722       -7.6735458875       13.5466596344  MEMB      21              0.0000000000
      2729        21  POPC      H4R            22.6947633514       -7.1295478647       13.1737205493  MEMB      21              0.0000000000
      2730        21  POPC      H4S            21.2961304367       -6.9963019261       14.2722945531  MEMB      21              0.0000000000
      2731        21  POPC      C25            20.8485273800       -7.8719070097       12.3410360381  MEMB      21              0.0000000000
      2732        21  POPC      H5R            20.9707812355       -6.9980348366       11.6579381491  MEMB      21              0.0000000000
      2733        21  POPC      H5S            19.7920036892       -7.8642048588       12.6878093690  MEMB      21              0.0000000000
      2734        21  POPC      C26            21.1405571252       -9.1475123575       11.5358946787  MEMB      21              0.0000000000
      2735        21  POPC      H6R            21.0019743201      -10.0248393055       12.2065662463  MEMB      21              0.0000000000
      2736        21  POPC      H6S            22.2110666769       -9.1150502731       11.2340080627  MEMB      21              0.0000000000
      2737        21  POPC      C27            20.2564887320       -9.3338739133       10.2860361621  MEMB      21              0.0000000000
      2738        21  POPC      H7R            19.1907345557       -9.1888844748       10.5640108049  MEMB      21              0.0000000000
      2739        21  POPC      H7S            20.3689046906      -10.3847855374        9.9305882599  MEMB      21              0.0000000000
      2740        21  POPC      C28            20.6597455460       -8.3985582788        9.1288539370  MEMB      21              0.0000000000
      2741        21  POPC      H8R            21.7003643327       -8.6950252598        8.8723054688  MEMB      21              0.0000000000
      2742        21  POPC      H8S            20.7298766755       -7.3603301252        9.5147571155  MEMB      21              0.0000000000
      2743        21  POPC      C29            19.7415624608       -8.3925646744        7.9241237497  MEMB      21              0.0000000000
      2744        21  POPC      H91            18.9452012519       -7.6382375978        7.9664589692  MEMB      21              0.0000000000
      2745        21  POPC      C210           19.8519923252       -9.1099238712        6.7915453529  MEMB      21              0.0000000000
      2746        21  POPC      H101           19.1160011348       -8.9835626800        5.9842797259  MEMB      21              0.0000000000
      2747        21  POPC      C211           20.9292098545      -10.0912627774        6.4648224676  MEMB      21              0.0000000000
      2748        21  POPC      H11R           20.5623730754      -11.1406034241        6.5360974202  MEMB      21              0.0000000000
      2749        21  POPC      H11S           21.7608451221       -9.9817195191        7.1958605071  MEMB      21              0.0000000000
      2750        21  POPC      C212           21.4387447095       -9.8422731255        5.0299211947  MEMB      21              0.0000000000
      2751        21  POPC      H12R           21.6197484168       -8.7950681648        4.8694871898  MEMB      21              0.0000000000
      2752        21  POPC      H12S           20.7077866009      -10.1470934663        4.2620113596  MEMB      21              0.0000000000
      2753        21  POPC      C213           22.7270841398      -10.5725831452        4.7607942801  MEMB      21              0.0000000000
      2754        21  POPC      H13R           22.3292505315      -11.5174365817        5.0717054356  MEMB      21              0.0000000000
      2755        21  POPC      H13S           23.4993972788      -10.2990747397        5.4905355985  MEMB      21              0.0000000000
      2756        21  POPC      C214           23.2983816600      -10.5815104669        3.3540154362  MEMB      21              0.0000000000
      2757        21  POPC      H14R           24.1917631361       -9.9334183334        3.3647871331  MEMB      21              0.0000000000
      2758        21  POPC      H14S           22.5368088920      -10.2441254386        2.6285854092  MEMB      21              0.0000000000
      2759        21  POPC      C215           23.8822988005      -11.8654124701        2.8401681343  MEMB      21              0.0000000000
      2760        21  POPC      H15R           23.1555262452      -12.6770360757        2.6671861033  MEMB      21              0.0000000000
      2761        21  POPC      H15S           24.7680923365      -12.2012325926        3.4419158103  MEMB      21              0.0000000000
      2762        21  POPC      C216           24.3534960956      -11.7430052368        1.4508575675  MEMB      21              0.0000000000
      2763        21  POPC      H16R           24.8724596868      -12.6962028752        1.4607848275  MEMB      21              0.0000000000
      2764        21  POPC      H16S           25.1043560969      -10.9370882516        1.5134702587  MEMB      21              0.0000000000
      2765        21  POPC      C217           23.2077731285      -11.6767495917        0.4018128192  MEMB      21              0.0000000000
      2766        21  POPC      H17R           23.1446069410      -10.5987424214        0.1548913620  MEMB      21              0.0000000000
      2767        21  POPC      H17S           22.2730332842      -12.0067059267        0.9049525456  MEMB      21              0.0000000000
      2768        21  POPC      C218           23.2110465323      -12.4896927076       -0.9155831744  MEMB      21              0.0000000000
      2769        21  POPC      H18R           23.3491696426      -13.5812865694       -0.7419299163  MEMB      21              0.0000000000
      2770        21  POPC      H18S           24.0539543707      -12.1589045232       -1.5415417228  MEMB      21              0.0000000000
      2771        21  POPC      H18T           22.3159082952      -12.3553998746       -1.5419384920  MEMB      21              0.0000000000
      2772        21  POPC      C33            17.4047835325      -13.2352063366       15.1149013928  MEMB      21              0.0000000000
      2773        21  POPC      H3X            17.6277520832      -12.6588193018       16.0349064083  MEMB      21              0.0000000000
      2774        21  POPC      H3Y            16.4018006271      -13.6965728447       15.2746991705  MEMB      21              0.0000000000
      2775        21  POPC      C34            17.2913703648      -12.2689319266       13.9455852577  MEMB      21              0.0000000000
      2776        21  POPC      H4X            17.0302056768      -12.8688854919       13.0449592394  MEMB      21              0.0000000000
      2777        21  POPC      H4Y            18.2502940780      -11.7458458655       13.7503770896  MEMB      21              0.0000000000
      2778        21  POPC      C35            16.2057062065      -11.2316165939       14.1941489583  MEMB      21              0.0000000000
      2779        21  POPC      H5X            16.4418121298      -10.5658622571       15.0528760579  MEMB      21              0.0000000000
      2780        21  POPC      H5Y            15.2879549976      -11.7772760620       14.5124594996  MEMB      21              0.0000000000
      2781        21  POPC      C36            15.9249016787      -10.3934850708       12.9476064453  MEMB      21              0.0000000000
      2782        21  POPC      H6X            16.7471549190       -9.6861036753       12.7385888120  MEMB      21              0.0000000000
      2783        21  POPC      H6Y            15.0267030457       -9.7663713421       13.1870786992  MEMB      21              0.0000000000
      2784        21  POPC      C37            15.7129433868      -11.2306755205       11.6640779558  MEMB      21              0.0000000000
      2785        21  POPC      H7X            15.0995832282      -12.1474063700       11.8453051701  MEMB      21              0.0000000000
      2786        21  POPC      H7Y            16.6547699391      -11.6070832123       11.2450686214  MEMB      21              0.0000000000
      2787        21  POPC      C38            14.9749784647      -10.3777121099       10.6615292596  MEMB      21              0.0000000000
      2788        21  POPC      H8X            15.2814035354       -9.3134211568       10.7237266347  MEMB      21              0.0000000000
      2789        21  POPC      H8Y            13.9670526891      -10.4190745190       11.0846967602  MEMB      21              0.0000000000
      2790        21  POPC      C39            15.0194456325      -10.8571156197        9.2157997312  MEMB      21              0.0000000000
      2791        21  POPC      H9X            14.2716045956      -10.3423794231        8.5840397560  MEMB      21              0.0000000000
      2792        21  POPC      H9Y            14.8033569347      -11.9439719145        9.1531622109  MEMB      21              0.0000000000
      2793        21  POPC      C310           16.3355374153      -10.4200467877        8.5896293872  MEMB      21              0.0000000000
      2794        21  POPC      H10X           17.1481616610      -10.5503022352        9.3360234265  MEMB      21              0.0000000000
      2795        21  POPC      H10Y           16.2536268559       -9.3279573356        8.3785190197  MEMB      21              0.0000000000
      2796        21  POPC      C311           16.6538517543      -11.1609353160        7.2957855186  MEMB      21              0.0000000000
      2797        21  POPC      H11X           16.5028337497      -12.2541595670        7.4412943394  MEMB      21              0.0000000000
      2798        21  POPC      H11Y           17.7293119084      -10.9852684431        7.0815844398  MEMB      21              0.0000000000
      2799        21  POPC      C312           15.7833241804      -10.6827317580        6.1273012373  MEMB      21              0.0000000000
      2800        21  POPC      H12X           15.8504916158       -9.5806881142        6.0102696784  MEMB      21              0.0000000000
      2801        21  POPC      H12Y           14.7269672066      -10.9106855021        6.3825804804  MEMB      21              0.0000000000
      2802        21  POPC      C313           16.1493960109      -11.3238504507        4.7867337326  MEMB      21              0.0000000000
      2803        21  POPC      H13X           15.3400883921      -11.0989266573        4.0523582222  MEMB      21              0.0000000000
      2804        21  POPC      H13Y           16.1895624643      -12.4313534289        4.8952403051  MEMB      21              0.0000000000
      2805        21  POPC      C314           17.4811349383      -10.8080641616        4.2212912323  MEMB      21              0.0000000000
      2806        21  POPC      H14X           18.3168622193      -11.0108023505        4.9216259547  MEMB      21              0.0000000000
      2807        21  POPC      H14Y           17.4188003864       -9.7198358843        4.0165628395  MEMB      21              0.0000000000
      2808        21  POPC      C315           17.7687761598      -11.4706207642        2.8974129834  MEMB      21              0.0000000000
      2809        21  POPC      H15X           16.9755332118      -11.1131381744        2.2152097833  MEMB      21              0.0000000000
      2810        21  POPC      H15Y           17.6379827143      -12.5556521798        3.1011399200  MEMB      21              0.0000000000
      2811        21  POPC      C316           19.0672750133      -11.1259298319        2.1798098259  MEMB      21              0.0000000000
      2812        21  POPC      H16X           19.1708314721      -10.0278268279        2.1403284196  MEMB      21              0.0000000000
      2813        21  POPC      H16Y           19.0510875042      -11.5228441382        1.1355274960  MEMB      21              0.0000000000
      2814        21  POPC      H16Z           19.9382642564      -11.5632039216        2.7063509249  MEMB      21              0.0000000000
      2815        22  POPC      N             -20.9905121941       -7.9262316559       19.5756308913  MEMB      22              0.0000000000
      2816        22  POPC      C12           -21.6838380213       -6.6317971939       19.1580069623  MEMB      22              0.0000000000
      2817        22  POPC      H12A          -22.7477631070       -6.7397113690       19.3092732761  MEMB      22              0.0000000000
      2818        22  POPC      H12B          -21.5230935651       -6.4920773439       18.0847982608  MEMB      22              0.0000000000
      2819        22  POPC      C13           -20.5561326382       -7.8856141332       21.0082284708  MEMB      22              0.0000000000
      2820        22  POPC      H13A          -19.9960237348       -8.7661326920       21.2854574903  MEMB      22              0.0000000000
      2821        22  POPC      H13B          -19.8934643132       -7.0258779862       21.1386298643  MEMB      22              0.0000000000
      2822        22  POPC      H13C          -21.3720044750       -7.7480018827       21.6990444405  MEMB      22              0.0000000000
      2823        22  POPC      C14           -21.8219301184       -9.1154329401       19.2755628068  MEMB      22              0.0000000000
      2824        22  POPC      H14A          -22.1856842766       -9.0677849192       18.2513039613  MEMB      22              0.0000000000
      2825        22  POPC      H14B          -21.2597091701      -10.0277994120       19.4209064662  MEMB      22              0.0000000000
      2826        22  POPC      H14C          -22.6695150634       -9.1368629140       19.9482281411  MEMB      22              0.0000000000
      2827        22  POPC      C15           -19.7607146638       -8.0926203735       18.7609628630  MEMB      22              0.0000000000
      2828        22  POPC      H15A          -19.9848211990       -7.9002525352       17.7176076999  MEMB      22              0.0000000000
      2829        22  POPC      H15B          -19.3549138286       -9.0834589931       18.8916793794  MEMB      22              0.0000000000
      2830        22  POPC      H15C          -19.0190223237       -7.3504605331       19.0576467454  MEMB      22              0.0000000000
      2831        22  POPC      C11           -21.2251914324       -5.2918486467       19.8001269792  MEMB      22              0.0000000000
      2832        22  POPC      H11A          -21.4550771039       -5.3257180502       20.8786269039  MEMB      22              0.0000000000
      2833        22  POPC      H11B          -21.8259261415       -4.4539776505       19.3741771350  MEMB      22              0.0000000000
      2834        22  POPC      P             -19.1846559215       -4.6305383395       18.2701128640  MEMB      22              0.0000000000
      2835        22  POPC      O13           -18.0765610864       -5.5737412664       17.9978110657  MEMB      22              0.0000000000
      2836        22  POPC      O14           -18.8875002808       -3.1781820624       18.2141749989  MEMB      22              0.0000000000
      2837        22  POPC      O12           -19.8308530803       -5.0443710444       19.6591720976  MEMB      22              0.0000000000
      2838        22  POPC      O11           -20.3732197634       -4.9792873164       17.2658815855  MEMB      22              0.0000000000
      2839        22  POPC      C1            -20.8144536669       -4.0130937215       16.3163083603  MEMB      22              0.0000000000
      2840        22  POPC      HA            -19.9578115999       -3.4163468331       15.9114248998  MEMB      22              0.0000000000
      2841        22  POPC      HB            -21.5163121780       -3.2965233164       16.7984884321  MEMB      22              0.0000000000
      2842        22  POPC      C2            -21.5474173051       -4.6736405354       15.1125080975  MEMB      22              0.0000000000
      2843        22  POPC      HS            -22.5437145689       -5.0480539390       15.4225611177  MEMB      22              0.0000000000
      2844        22  POPC      O21           -20.7534773820       -5.7113609377       14.5164814729  MEMB      22              0.0000000000
      2845        22  POPC      C21           -20.8416821286       -6.8956558577       15.0959194365  MEMB      22              0.0000000000
      2846        22  POPC      O22           -21.7354094234       -7.2655913464       15.8390164214  MEMB      22              0.0000000000
      2847        22  POPC      C22           -19.6271617483       -7.7458024662       14.7145325290  MEMB      22              0.0000000000
      2848        22  POPC      H2R           -19.9344570303       -8.5133700996       13.9768983236  MEMB      22              0.0000000000
      2849        22  POPC      H2S           -19.2787831580       -8.2727443339       15.6279729015  MEMB      22              0.0000000000
      2850        22  POPC      C3            -21.8128766812       -3.5963491012       14.0556268836  MEMB      22              0.0000000000
      2851        22  POPC      HX            -20.7644953596       -3.3463524166       13.7356876717  MEMB      22              0.0000000000
      2852        22  POPC      HY            -22.2338896007       -2.6940636415       14.5455164822  MEMB      22              0.0000000000
      2853        22  POPC      O31           -22.7395488213       -4.0811741996       13.0289705058  MEMB      22              0.0000000000
      2854        22  POPC      C31           -22.2671525793       -3.7810094588       11.8289839330  MEMB      22              0.0000000000
      2855        22  POPC      O32           -21.2574257274       -3.1842484360       11.6104892112  MEMB      22              0.0000000000
      2856        22  POPC      C32           -22.8743183294       -4.3697160250       10.6287442666  MEMB      22              0.0000000000
      2857        22  POPC      H2X           -22.9205449592       -3.5709471061        9.8446181494  MEMB      22              0.0000000000
      2858        22  POPC      H2Y           -23.8724640246       -4.7881732308       10.8187085416  MEMB      22              0.0000000000
      2859        22  POPC      C23           -18.4686996740       -6.8511148155       14.2256541718  MEMB      22              0.0000000000
      2860        22  POPC      H3R           -18.2470130785       -6.1124545521       15.0374028923  MEMB      22              0.0000000000
      2861        22  POPC      H3S           -18.7480188010       -6.2666628247       13.3191487352  MEMB      22              0.0000000000
      2862        22  POPC      C24           -17.1866106151       -7.6246852058       13.9344651866  MEMB      22              0.0000000000
      2863        22  POPC      H4R           -16.8191357513       -8.0762000657       14.8842608726  MEMB      22              0.0000000000
      2864        22  POPC      H4S           -16.4359716771       -6.8870876106       13.5931480231  MEMB      22              0.0000000000
      2865        22  POPC      C25           -17.2986341929       -8.7254745179       12.8646067130  MEMB      22              0.0000000000
      2866        22  POPC      H5R           -18.0032774051       -9.5070177351       13.2222918018  MEMB      22              0.0000000000
      2867        22  POPC      H5S           -16.2898752535       -9.1933675431       12.8032278808  MEMB      22              0.0000000000
      2868        22  POPC      C26           -17.6908515133       -8.2514234633       11.4456206477  MEMB      22              0.0000000000
      2869        22  POPC      H6R           -16.8675141996       -7.6337379569       11.0232796062  MEMB      22              0.0000000000
      2870        22  POPC      H6S           -18.5899663150       -7.5966867387       11.4937558003  MEMB      22              0.0000000000
      2871        22  POPC      C27           -17.9888702824       -9.4217354080       10.4822949231  MEMB      22              0.0000000000
      2872        22  POPC      H7R           -18.9253569364       -9.9100995543       10.8371872999  MEMB      22              0.0000000000
      2873        22  POPC      H7S           -17.1821744845      -10.1836266217       10.5181538108  MEMB      22              0.0000000000
      2874        22  POPC      C28           -18.2313884340       -9.0103387610        9.0156458865  MEMB      22              0.0000000000
      2875        22  POPC      H8R           -18.8999093444       -8.1187336269        9.0556372385  MEMB      22              0.0000000000
      2876        22  POPC      H8S           -18.8171919414       -9.8165116740        8.5245624804  MEMB      22              0.0000000000
      2877        22  POPC      C29           -17.0079908202       -8.7687993855        8.1646332000  MEMB      22              0.0000000000
      2878        22  POPC      H91           -16.0992462177       -9.3519264239        8.3661515843  MEMB      22              0.0000000000
      2879        22  POPC      C210          -17.0071738229       -7.9439715948        7.1218023096  MEMB      22              0.0000000000
      2880        22  POPC      H101          -16.0648575126       -7.6763933231        6.6112765399  MEMB      22              0.0000000000
      2881        22  POPC      C211          -18.2086099063       -7.1682041900        6.6899455114  MEMB      22              0.0000000000
      2882        22  POPC      H11R          -19.1516984033       -7.2678812211        7.2812058601  MEMB      22              0.0000000000
      2883        22  POPC      H11S          -18.4152613236       -7.3440564601        5.6215464506  MEMB      22              0.0000000000
      2884        22  POPC      C212          -17.8342370304       -5.7591146084        6.9933219211  MEMB      22              0.0000000000
      2885        22  POPC      H12R          -16.8632737657       -5.5602966920        6.4585437218  MEMB      22              0.0000000000
      2886        22  POPC      H12S          -17.6814523945       -5.7207077034        8.0807499762  MEMB      22              0.0000000000
      2887        22  POPC      C213          -18.9906270134       -4.8364253860        6.6258553080  MEMB      22              0.0000000000
      2888        22  POPC      H13R          -18.8995542528       -3.7407952631        6.7046790979  MEMB      22              0.0000000000
      2889        22  POPC      H13S          -19.9075264407       -4.9572610773        7.1894281339  MEMB      22              0.0000000000
      2890        22  POPC      C214          -19.1601747046       -5.0956976678        5.2055085447  MEMB      22              0.0000000000
      2891        22  POPC      H14R          -19.6974649215       -6.0379631678        5.0456048707  MEMB      22              0.0000000000
      2892        22  POPC      H14S          -18.1890461322       -5.0601113483        4.6440008498  MEMB      22              0.0000000000
      2893        22  POPC      C215          -20.0762324472       -4.1669519849        4.6546956794  MEMB      22              0.0000000000
      2894        22  POPC      H15R          -19.8495631631       -3.2362532740        5.2027048440  MEMB      22              0.0000000000
      2895        22  POPC      H15S          -21.1086786040       -4.1452461462        5.0825376740  MEMB      22              0.0000000000
      2896        22  POPC      C216          -19.9746166184       -4.6352634003        3.1253320429  MEMB      22              0.0000000000
      2897        22  POPC      H16R          -21.0158921521       -4.6179534382        3.0875206454  MEMB      22              0.0000000000
      2898        22  POPC      H16S          -19.8584263988       -5.7311732533        3.1082854441  MEMB      22              0.0000000000
      2899        22  POPC      C217          -18.8714991357       -4.2987026785        1.8853347702  MEMB      22              0.0000000000
      2900        22  POPC      H17R          -18.3411490187       -4.3711042079        2.8017282935  MEMB      22              0.0000000000
      2901        22  POPC      H17S          -19.2903575511       -3.4246941994        1.8041605068  MEMB      22              0.0000000000
      2902        22  POPC      C218          -18.1643158050       -3.3061144592        0.5371433912  MEMB      22              0.0000000000
      2903        22  POPC      H18R          -18.0581405513       -3.7335863032       -0.3862442737  MEMB      22              0.0000000000
      2904        22  POPC      H18S          -17.3651141782       -2.5424996775        0.5919313210  MEMB      22              0.0000000000
      2905        22  POPC      H18T          -18.5785818795       -2.6429049806       -0.1551743181  MEMB      22              0.0000000000
      2906        22  POPC      C33           -21.7042608620       -5.3211908198       10.3067133366  MEMB      22              0.0000000000
      2907        22  POPC      H3X           -21.6709952029       -6.0915927753       11.1118693543  MEMB      22              0.0000000000
      2908        22  POPC      H3Y           -20.6924935326       -4.8257093374       10.2802848890  MEMB      22              0.0000000000
      2909        22  POPC      C34           -21.7652811242       -5.9846831459        8.9606443086  MEMB      22              0.0000000000
      2910        22  POPC      H4X           -20.9299105247       -6.7240641682        8.9359931070  MEMB      22              0.0000000000
      2911        22  POPC      H4Y           -21.5967230767       -5.2242858858        8.1683199543  MEMB      22              0.0000000000
      2912        22  POPC      C35           -23.1013784658       -6.6735284378        8.7858254250  MEMB      22              0.0000000000
      2913        22  POPC      H5X           -23.9211103367       -5.9257073411        8.8491230127  MEMB      22              0.0000000000
      2914        22  POPC      H5Y           -23.2066487759       -7.4022024871        9.6228313856  MEMB      22              0.0000000000
      2915        22  POPC      C36           -23.2217077418       -7.4129298291        7.4713986886  MEMB      22              0.0000000000
      2916        22  POPC      H6X           -24.2839160518       -7.6747133101        7.2636636058  MEMB      22              0.0000000000
      2917        22  POPC      H6Y           -22.6660866044       -8.3744084865        7.5671481710  MEMB      22              0.0000000000
      2918        22  POPC      C37           -22.6653089887       -6.6703498449        6.2625205857  MEMB      22              0.0000000000
      2919        22  POPC      H7X           -21.6130531527       -6.3685140174        6.3987202118  MEMB      22              0.0000000000
      2920        22  POPC      H7Y           -23.2919948923       -5.7793896744        6.0131499732  MEMB      22              0.0000000000
      2921        22  POPC      C38           -22.7046697030       -7.6869569363        5.1501005498  MEMB      22              0.0000000000
      2922        22  POPC      H8X           -23.7857696987       -7.6680367714        4.9680438579  MEMB      22              0.0000000000
      2923        22  POPC      H8Y           -22.3280919902       -8.6589125239        5.4971234949  MEMB      22              0.0000000000
      2924        22  POPC      C39           -22.0865407762       -7.3369466854        3.8423498860  MEMB      22              0.0000000000
      2925        22  POPC      H9X           -22.1252435099       -8.1532219417        3.0993498147  MEMB      22              0.0000000000
      2926        22  POPC      H9Y           -21.0324908987       -7.0573997859        3.9570167469  MEMB      22              0.0000000000
      2927        22  POPC      C310          -22.9628144542       -6.2399855546        3.3564023616  MEMB      22              0.0000000000
      2928        22  POPC      H10X          -22.7341781082       -5.3151949947        3.9257946705  MEMB      22              0.0000000000
      2929        22  POPC      H10Y          -24.0471107290       -6.5150787273        3.3920707664  MEMB      22              0.0000000000
      2930        22  POPC      C311          -22.7158527366       -5.9272399842        1.9651931399  MEMB      22              0.0000000000
      2931        22  POPC      H11X          -21.6420361166       -5.7540012496        1.7319426493  MEMB      22              0.0000000000
      2932        22  POPC      H11Y          -23.3754913933       -5.0318407254        1.8266210485  MEMB      22              0.0000000000
      2933        22  POPC      C312          -23.1410196599       -6.9606464398        1.0299971348  MEMB      22              0.0000000000
      2934        22  POPC      H12X          -24.2314038297       -7.0416341573        1.0372241171  MEMB      22              0.0000000000
      2935        22  POPC      H12Y          -22.7631115626       -7.9962340919        1.1819917692  MEMB      22              0.0000000000
      2936        22  POPC      C313          -22.7530302221       -6.1911772210       -0.1646748106  MEMB      22              0.0000000000
      2937        22  POPC      H13X          -23.1968260199       -5.2213540283       -0.3677775664  MEMB      22              0.0000000000
      2938        22  POPC      H13Y          -23.0611859401       -6.8536771388       -0.8833238524  MEMB      22              0.0000000000
      2939        22  POPC      C314          -21.9391620043       -6.7624097226       -1.1508335187  MEMB      22              0.0000000000
      2940        22  POPC      H14X          -21.5460406184       -5.8998784870       -0.8624608943  MEMB      22              0.0000000000
      2941        22  POPC      H14Y          -21.7436151006       -6.4050588356       -2.2493374379  MEMB      22              0.0000000000
      2942        22  POPC      C315          -21.4181886485       -8.0080599664       -0.5534020597  MEMB      22              0.0000000000
      2943        22  POPC      H15X          -21.9081274965       -8.9739201787       -0.6768533610  MEMB      22              0.0000000000
      2944        22  POPC      H15Y          -20.7999746165       -7.8530787810        0.3710179588  MEMB      22              0.0000000000
      2945        22  POPC      C316          -20.8719875854       -8.0441569739       -1.7316866890  MEMB      22              0.0000000000
      2946        22  POPC      H16X          -20.7047384148       -8.8175993675       -2.3052237332  MEMB      22              0.0000000000
      2947        22  POPC      H16Y          -20.0417646934       -8.6645729353       -1.7686976775  MEMB      22              0.0000000000
      2948        22  POPC      H16Z          -20.2314910398       -7.2541312016       -1.7810132630  MEMB      22              0.0000000000
      2949        23  POPC      N               8.3948244766      -20.0762227892       20.9976140819  MEMB      23              0.0000000000
      2950        23  POPC      C12             9.2696674364      -20.8470778746       20.0147741926  MEMB      23              0.0000000000
      2951        23  POPC      H12A            8.7166030909      -21.7099547966       19.6369899993  MEMB      23              0.0000000000
      2952        23  POPC      H12B           10.1345607440      -21.2366983060       20.5212137249  MEMB      23              0.0000000000
      2953        23  POPC      C13             8.3601642323      -20.8059505305       22.2878805527  MEMB      23              0.0000000000
      2954        23  POPC      H13A            7.9968144357      -21.8219261485       22.1531719879  MEMB      23              0.0000000000
      2955        23  POPC      H13B            9.3562983362      -20.8237793380       22.7304178068  MEMB      23              0.0000000000
      2956        23  POPC      H13C            7.7023804020      -20.3092904199       22.9848350041  MEMB      23              0.0000000000
      2957        23  POPC      C14             8.9360739562      -18.7050726036       21.2889750742  MEMB      23              0.0000000000
      2958        23  POPC      H14A            9.8632762276      -18.7636574135       21.8568802148  MEMB      23              0.0000000000
      2959        23  POPC      H14B            9.1280329518      -18.1757902333       20.3598322316  MEMB      23              0.0000000000
      2960        23  POPC      H14C            8.2208461740      -18.1460359699       21.8756950155  MEMB      23              0.0000000000
      2961        23  POPC      C15             6.9957972674      -19.9474861076       20.4444980461  MEMB      23              0.0000000000
      2962        23  POPC      H15A            6.3819702147      -19.2559709603       20.9888135475  MEMB      23              0.0000000000
      2963        23  POPC      H15B            6.4739269598      -20.8997488066       20.3990856230  MEMB      23              0.0000000000
      2964        23  POPC      H15C            7.0253581847      -19.6327692891       19.3920952972  MEMB      23              0.0000000000
      2965        23  POPC      C11             9.7665785810      -20.1030642162       18.7608814527  MEMB      23              0.0000000000
      2966        23  POPC      H11A           10.3156305907      -20.8376384080       18.1175450541  MEMB      23              0.0000000000
      2967        23  POPC      H11B           10.5033557087      -19.3173286589       19.0344423115  MEMB      23              0.0000000000
      2968        23  POPC      P               7.8502904779      -20.3420313010       17.0167305722  MEMB      23              0.0000000000
      2969        23  POPC      O13             7.0122283194      -19.4020874707       16.2615578439  MEMB      23              0.0000000000
      2970        23  POPC      O14             7.1803999094      -21.4571826257       17.7089164248  MEMB      23              0.0000000000
      2971        23  POPC      O12             8.6674576982      -19.4969556983       18.0927778339  MEMB      23              0.0000000000
      2972        23  POPC      O11             8.9669065779      -20.9637941901       16.0964495499  MEMB      23              0.0000000000
      2973        23  POPC      C1              8.5673592963      -21.5651577537       14.8684009931  MEMB      23              0.0000000000
      2974        23  POPC      HA              7.4561805765      -21.6170325702       14.7303398519  MEMB      23              0.0000000000
      2975        23  POPC      HB              8.9364548154      -22.6083300149       14.8612261465  MEMB      23              0.0000000000
      2976        23  POPC      C2              9.1919980591      -20.7641997056       13.7075000117  MEMB      23              0.0000000000
      2977        23  POPC      HS             10.2867968700      -20.7595691829       13.8909299526  MEMB      23              0.0000000000
      2978        23  POPC      O21             8.6523610171      -19.4503817382       13.7613805551  MEMB      23              0.0000000000
      2979        23  POPC      C21             9.3567359735      -18.5224983691       13.2095190462  MEMB      23              0.0000000000
      2980        23  POPC      O22            10.4426280137      -18.6553407139       12.6523791546  MEMB      23              0.0000000000
      2981        23  POPC      C22             8.5633776153      -17.2378358972       13.4061607589  MEMB      23              0.0000000000
      2982        23  POPC      H2R             8.5120554606      -16.9927870436       14.4838707360  MEMB      23              0.0000000000
      2983        23  POPC      H2S             7.5702431057      -17.3300719829       12.9393150599  MEMB      23              0.0000000000
      2984        23  POPC      C3              8.8990407713      -21.3896161502       12.3315167910  MEMB      23              0.0000000000
      2985        23  POPC      HX              9.5067855146      -22.3185446008       12.2740707911  MEMB      23              0.0000000000
      2986        23  POPC      HY              9.1974287924      -20.7275656837       11.4882842510  MEMB      23              0.0000000000
      2987        23  POPC      O31             7.5284905566      -21.7614526413       12.2675674887  MEMB      23              0.0000000000
      2988        23  POPC      C31             6.6286726436      -20.8631405460       11.8484767665  MEMB      23              0.0000000000
      2989        23  POPC      O32             6.8775661128      -19.7964157339       11.3411095686  MEMB      23              0.0000000000
      2990        23  POPC      C32             5.2750806092      -21.5573924383       11.8917598408  MEMB      23              0.0000000000
      2991        23  POPC      H2X             4.4881845477      -21.2269061491       12.5645928205  MEMB      23              0.0000000000
      2992        23  POPC      H2Y             5.5751078187      -22.4825940411       12.3806270038  MEMB      23              0.0000000000
      2993        23  POPC      C23             9.2362669428      -16.0792006258       12.7774255318  MEMB      23              0.0000000000
      2994        23  POPC      H3R            10.3083172284      -16.2329340133       13.0437544711  MEMB      23              0.0000000000
      2995        23  POPC      H3S             8.8876777064      -15.0957800591       13.1711159907  MEMB      23              0.0000000000
      2996        23  POPC      C24             9.0996260252      -16.1007944793       11.2848890958  MEMB      23              0.0000000000
      2997        23  POPC      H4R             9.7564500103      -16.8761599834       10.8250382600  MEMB      23              0.0000000000
      2998        23  POPC      H4S             9.4037358734      -15.0704084007       11.0228003804  MEMB      23              0.0000000000
      2999        23  POPC      C25             7.8675057234      -15.7647956612       10.5492050647  MEMB      23              0.0000000000
      3000        23  POPC      H5R             7.5327869538      -14.7264509344       10.8535622939  MEMB      23              0.0000000000
      3001        23  POPC      H5S             7.1259804854      -16.5316359962       10.7721180097  MEMB      23              0.0000000000
      3002        23  POPC      C26             8.1871838627      -15.7056063901        9.0597208192  MEMB      23              0.0000000000
      3003        23  POPC      H6R             8.9878772977      -14.9662188416        8.8521757380  MEMB      23              0.0000000000
      3004        23  POPC      H6S             7.1918776983      -15.3761933069        8.7286503300  MEMB      23              0.0000000000
      3005        23  POPC      C27             8.6153373482      -16.9887945781        8.3206806008  MEMB      23              0.0000000000
      3006        23  POPC      H7R             8.0187048100      -17.7940450666        8.7936812391  MEMB      23              0.0000000000
      3007        23  POPC      H7S             9.7081755853      -17.1190307217        8.4786986527  MEMB      23              0.0000000000
      3008        23  POPC      C28             8.3918472312      -17.0321681759        6.7878593744  MEMB      23              0.0000000000
      3009        23  POPC      H8R             9.0966629114      -16.3512337755        6.2655698557  MEMB      23              0.0000000000
      3010        23  POPC      H8S             7.3578519372      -16.6356957211        6.6225929415  MEMB      23              0.0000000000
      3011        23  POPC      C29             8.6482498266      -18.3143720183        6.0937401785  MEMB      23              0.0000000000
      3012        23  POPC      H91             9.6612038746      -18.7084118074        6.1493096892  MEMB      23              0.0000000000
      3013        23  POPC      C210            7.7092131585      -18.9590879523        5.4355588006  MEMB      23              0.0000000000
      3014        23  POPC      H101            7.8733240591      -19.9848279937        5.1413056069  MEMB      23              0.0000000000
      3015        23  POPC      C211            6.3351887397      -18.4274726665        5.3759474057  MEMB      23              0.0000000000
      3016        23  POPC      H11R            6.3461100263      -17.3626527432        5.0707987966  MEMB      23              0.0000000000
      3017        23  POPC      H11S            6.0079874347      -18.5342494439        6.4181653363  MEMB      23              0.0000000000
      3018        23  POPC      C212            5.3846467651      -19.0028687513        4.3807353873  MEMB      23              0.0000000000
      3019        23  POPC      H12R            4.3013425131      -18.7674355661        4.4182285740  MEMB      23              0.0000000000
      3020        23  POPC      H12S            5.3947935926      -20.1133953422        4.4334848329  MEMB      23              0.0000000000
      3021        23  POPC      C213            5.8348760485      -18.4128935687        3.0771892441  MEMB      23              0.0000000000
      3022        23  POPC      H13R            4.9492676144      -18.7244353910        2.5159755042  MEMB      23              0.0000000000
      3023        23  POPC      H13S            6.8652360612      -18.7568188363        2.8189894381  MEMB      23              0.0000000000
      3024        23  POPC      C214            5.5227601649      -17.1165386153        2.4091269203  MEMB      23              0.0000000000
      3025        23  POPC      H14R            6.1260445339      -16.5915613589        3.1278535659  MEMB      23              0.0000000000
      3026        23  POPC      H14S            4.4523976186      -16.9141929073        2.3020880943  MEMB      23              0.0000000000
      3027        23  POPC      C215            6.0029309160      -17.0380607406        0.9772137369  MEMB      23              0.0000000000
      3028        23  POPC      H15R            6.8615800901      -17.7114369608        1.1148795153  MEMB      23              0.0000000000
      3029        23  POPC      H15S            6.5989964896      -16.1832199456        0.7640110275  MEMB      23              0.0000000000
      3030        23  POPC      C216            4.8977791567      -17.2280934127       -0.1455670979  MEMB      23              0.0000000000
      3031        23  POPC      H16R            4.2274305441      -16.3598143922       -0.1280739890  MEMB      23              0.0000000000
      3032        23  POPC      H16S            4.2971007198      -18.1344568135        0.1277691861  MEMB      23              0.0000000000
      3033        23  POPC      C217            5.1810291231      -17.3425807960       -1.6889177961  MEMB      23              0.0000000000
      3034        23  POPC      H17R            4.2476247136      -17.5869102735       -2.2155382525  MEMB      23              0.0000000000
      3035        23  POPC      H17S            5.7395160599      -18.2112909784       -1.9380336333  MEMB      23              0.0000000000
      3036        23  POPC      C218            5.9346259007      -16.3634660448       -2.5641934750  MEMB      23              0.0000000000
      3037        23  POPC      H18R            6.8843236597      -16.0417618981       -2.1161292808  MEMB      23              0.0000000000
      3038        23  POPC      H18S            5.3336805753      -15.5339637891       -2.9103807004  MEMB      23              0.0000000000
      3039        23  POPC      H18T            6.1733704848      -16.9104192490       -3.5030902120  MEMB      23              0.0000000000
      3040        23  POPC      C33             4.5998324044      -21.6432401567       10.5102308571  MEMB      23              0.0000000000
      3041        23  POPC      H3X             4.4577788756      -20.6367462772       10.1038808164  MEMB      23              0.0000000000
      3042        23  POPC      H3Y             3.5950683861      -22.1204988424       10.5861760822  MEMB      23              0.0000000000
      3043        23  POPC      C34             5.5054185638      -22.3784871347        9.5537969047  MEMB      23              0.0000000000
      3044        23  POPC      H4X             5.1306727731      -23.4110042079        9.4691603904  MEMB      23              0.0000000000
      3045        23  POPC      H4Y             6.4635754478      -22.5340231168       10.0808614155  MEMB      23              0.0000000000
      3046        23  POPC      C35             5.5708683046      -21.8969327755        8.0851671891  MEMB      23              0.0000000000
      3047        23  POPC      H5X             5.4468215479      -20.8196479752        8.1077974940  MEMB      23              0.0000000000
      3048        23  POPC      H5Y             4.6137313365      -22.3401640543        7.7168319954  MEMB      23              0.0000000000
      3049        23  POPC      C36             6.8476168660      -22.0987768946        7.1659699263  MEMB      23              0.0000000000
      3050        23  POPC      H6X             7.2438344975      -23.0559713071        6.8793288409  MEMB      23              0.0000000000
      3051        23  POPC      H6Y             7.8042878766      -21.8363966664        7.6202944447  MEMB      23              0.0000000000
      3052        23  POPC      C37             6.6673079789      -22.1194732817        5.6831930592  MEMB      23              0.0000000000
      3053        23  POPC      H7X             6.4707652531      -21.0681968484        5.6496347219  MEMB      23              0.0000000000
      3054        23  POPC      H7Y             5.7669054728      -22.5718977937        5.2185247037  MEMB      23              0.0000000000
      3055        23  POPC      C38             7.9260270043      -22.7010691564        5.0225430162  MEMB      23              0.0000000000
      3056        23  POPC      H8X             8.2098457820      -23.7734856275        4.9336807919  MEMB      23              0.0000000000
      3057        23  POPC      H8Y             8.8421501027      -22.3670006465        5.5385228844  MEMB      23              0.0000000000
      3058        23  POPC      C39             7.7043929028      -22.2909578333        3.6683790558  MEMB      23              0.0000000000
      3059        23  POPC      H9X             7.5441811296      -21.2043109926        3.7687832854  MEMB      23              0.0000000000
      3060        23  POPC      H9Y             6.7694632850      -22.7132643120        3.2282512156  MEMB      23              0.0000000000
      3061        23  POPC      C310            8.9700273316      -22.6983443463        3.0257926073  MEMB      23              0.0000000000
      3062        23  POPC      H10X            8.8537589046      -23.7791018032        2.8365638362  MEMB      23              0.0000000000
      3063        23  POPC      H10Y            9.8413502200      -22.5795571849        3.6991432220  MEMB      23              0.0000000000
      3064        23  POPC      C311            9.1571400060      -21.7266325351        1.9298347135  MEMB      23              0.0000000000
      3065        23  POPC      H11X            8.5508948922      -20.8513848545        2.1962161196  MEMB      23              0.0000000000
      3066        23  POPC      H11Y            8.9463292047      -22.0715547235        0.9068693806  MEMB      23              0.0000000000
      3067        23  POPC      C312           10.5156311199      -21.4392672547        1.5646585242  MEMB      23              0.0000000000
      3068        23  POPC      H12X           10.8156824812      -22.5085008799        1.6042292429  MEMB      23              0.0000000000
      3069        23  POPC      H12Y           10.9409616301      -20.7485524218        2.3218165154  MEMB      23              0.0000000000
      3070        23  POPC      C313           10.7903113929      -21.0324634475        0.1404561573  MEMB      23              0.0000000000
      3071        23  POPC      H13X           10.1302238917      -21.5459738802       -0.6051176034  MEMB      23              0.0000000000
      3072        23  POPC      H13Y           11.8231963586      -21.2945510428       -0.1529129369  MEMB      23              0.0000000000
      3073        23  POPC      C314           10.6826514582      -19.5462793267        0.1641591300  MEMB      23              0.0000000000
      3074        23  POPC      H14X           11.3462363941      -18.9616867035        0.8088188906  MEMB      23              0.0000000000
      3075        23  POPC      H14Y            9.7377662080      -19.2786886783        0.6141316897  MEMB      23              0.0000000000
      3076        23  POPC      C315           10.8837256215      -19.0208968056       -1.1748737659  MEMB      23              0.0000000000
      3077        23  POPC      H15X           10.1148427646      -19.5382783708       -1.8171401441  MEMB      23              0.0000000000
      3078        23  POPC      H15Y           11.7989654404      -19.4294196358       -1.5921685712  MEMB      23              0.0000000000
      3079        23  POPC      C316           11.0069192869      -17.4686132034       -1.0626507469  MEMB      23              0.0000000000
      3080        23  POPC      H16X           10.9502106679      -17.0629733425       -2.0650136467  MEMB      23              0.0000000000
      3081        23  POPC      H16Y           11.9386329904      -17.0606884086       -0.7022528443  MEMB      23              0.0000000000
      3082        23  POPC      H16Z           10.2042386387      -16.8495667098       -0.6698288934  MEMB      23              0.0000000000
      3083        24  POPC      N              -1.0945709431       24.0411745662       19.4841294110  MEMB      24              0.0000000000
      3084        24  POPC      C12             0.2477773373       23.4060606375       19.3054411315  MEMB      24              0.0000000000
      3085        24  POPC      H12A            0.9689746161       23.8755626349       19.9636945673  MEMB      24              0.0000000000
      3086        24  POPC      H12B            0.5188197387       23.5744450359       18.2772704860  MEMB      24              0.0000000000
      3087        24  POPC      C13            -2.1730014848       23.3420124311       18.7268038610  MEMB      24              0.0000000000
      3088        24  POPC      H13A           -1.8089801595       23.0821247374       17.7363914522  MEMB      24              0.0000000000
      3089        24  POPC      H13B           -2.4080860699       22.3809541953       19.1704342720  MEMB      24              0.0000000000
      3090        24  POPC      H13C           -3.0718759457       23.9464228920       18.6519650874  MEMB      24              0.0000000000
      3091        24  POPC      C14            -1.4529296214       23.9410886806       20.8980556266  MEMB      24              0.0000000000
      3092        24  POPC      H14A           -1.3982938690       22.9406191900       21.3043610962  MEMB      24              0.0000000000
      3093        24  POPC      H14B           -0.7998847276       24.5238374211       21.5417357928  MEMB      24              0.0000000000
      3094        24  POPC      H14C           -2.4810216503       24.2928081100       21.0189057020  MEMB      24              0.0000000000
      3095        24  POPC      C15            -1.0903225396       25.4471685791       18.9796649361  MEMB      24              0.0000000000
      3096        24  POPC      H15A           -0.2641599872       26.0337203151       19.3543229972  MEMB      24              0.0000000000
      3097        24  POPC      H15B           -1.9942530149       25.9482316833       19.3568055037  MEMB      24              0.0000000000
      3098        24  POPC      H15C           -1.1658557611       25.5415215840       17.9077299452  MEMB      24              0.0000000000
      3099        24  POPC      C11             0.3452787651       21.8963924629       19.5163573286  MEMB      24              0.0000000000
      3100        24  POPC      H11A           -0.0167980426       21.5670593715       20.5155890367  MEMB      24              0.0000000000
      3101        24  POPC      H11B            1.4246461416       21.6409653084       19.4516210620  MEMB      24              0.0000000000
      3102        24  POPC      P              -0.4910118738       19.6955626579       18.4365741113  MEMB      24              0.0000000000
      3103        24  POPC      O13            -1.8988956057       19.2966278337       18.1884115908  MEMB      24              0.0000000000
      3104        24  POPC      O14             0.2122781971       19.1104505266       19.6036204156  MEMB      24              0.0000000000
      3105        24  POPC      O12            -0.3784684702       21.2760390055       18.4737366126  MEMB      24              0.0000000000
      3106        24  POPC      O11             0.3597865135       19.3792118209       17.1877821928  MEMB      24              0.0000000000
      3107        24  POPC      C1              1.6837819525       18.9961691192       17.4805332678  MEMB      24              0.0000000000
      3108        24  POPC      HA              1.7554014718       17.9308352893       17.7968575313  MEMB      24              0.0000000000
      3109        24  POPC      HB              2.2468424475       19.6726758599       18.1820420094  MEMB      24              0.0000000000
      3110        24  POPC      C2              2.3765695110       19.0766756699       16.2059087639  MEMB      24              0.0000000000
      3111        24  POPC      HS              3.3688766269       18.7176476282       16.5331597621  MEMB      24              0.0000000000
      3112        24  POPC      O21             2.2628361265       20.5435560134       15.8225944212  MEMB      24              0.0000000000
      3113        24  POPC      C21             2.8925093774       20.5939272537       14.6679112458  MEMB      24              0.0000000000
      3114        24  POPC      O22             3.3693831506       19.5609858932       14.2946781617  MEMB      24              0.0000000000
      3115        24  POPC      C22             3.0583795208       22.0026879359       13.9698503611  MEMB      24              0.0000000000
      3116        24  POPC      H2R             3.1417895334       22.7198115005       14.8113413397  MEMB      24              0.0000000000
      3117        24  POPC      H2S             2.1386667353       22.1338506258       13.3821987519  MEMB      24              0.0000000000
      3118        24  POPC      C3              1.7369112302       17.9732372769       15.1963235210  MEMB      24              0.0000000000
      3119        24  POPC      HX              1.5401017766       17.0582530984       15.7702134798  MEMB      24              0.0000000000
      3120        24  POPC      HY              2.5319724083       17.6006903265       14.5101037419  MEMB      24              0.0000000000
      3121        24  POPC      O31             0.6239038296       18.4095771751       14.4149858458  MEMB      24              0.0000000000
      3122        24  POPC      C31             0.6698106598       18.1386806572       13.1224230152  MEMB      24              0.0000000000
      3123        24  POPC      O32             1.5909547734       17.7084231701       12.4621652254  MEMB      24              0.0000000000
      3124        24  POPC      C32            -0.7205862137       18.2674129142       12.6244175672  MEMB      24              0.0000000000
      3125        24  POPC      H2X            -1.1066084298       19.2280917410       13.0187623600  MEMB      24              0.0000000000
      3126        24  POPC      H2Y            -1.2809432586       17.4045316742       13.0554987054  MEMB      24              0.0000000000
      3127        24  POPC      C23             4.2126462633       22.5201893900       13.0012047965  MEMB      24              0.0000000000
      3128        24  POPC      H3R             5.2805079690       22.5547661287       13.2982814707  MEMB      24              0.0000000000
      3129        24  POPC      H3S             3.9084280394       23.5784327209       13.0436220385  MEMB      24              0.0000000000
      3130        24  POPC      C24             4.3410956594       22.2733117521       11.4917188722  MEMB      24              0.0000000000
      3131        24  POPC      H4R             4.9918328792       21.4831112250       11.1591043387  MEMB      24              0.0000000000
      3132        24  POPC      H4S             5.2336599327       22.8294256970       11.2445792284  MEMB      24              0.0000000000
      3133        24  POPC      C25             3.0192760246       22.2350002125       10.6953068175  MEMB      24              0.0000000000
      3134        24  POPC      H5R             2.3618632942       23.0395674951       11.0222434742  MEMB      24              0.0000000000
      3135        24  POPC      H5S             2.4248009292       21.3427665442       10.9937269679  MEMB      24              0.0000000000
      3136        24  POPC      C26             3.1271697631       22.0659143128        9.1663201037  MEMB      24              0.0000000000
      3137        24  POPC      H6R             3.9690270731       21.4131491719        8.9043847561  MEMB      24              0.0000000000
      3138        24  POPC      H6S             3.3878321313       22.9994774674        8.6738252709  MEMB      24              0.0000000000
      3139        24  POPC      C27             1.9397053582       21.3512040870        8.5284655246  MEMB      24              0.0000000000
      3140        24  POPC      H7R             1.5097900878       20.5935460933        9.2253927608  MEMB      24              0.0000000000
      3141        24  POPC      H7S             2.1991715490       20.7891700688        7.5989088722  MEMB      24              0.0000000000
      3142        24  POPC      C28             0.9935688260       22.4489706602        8.1547064760  MEMB      24              0.0000000000
      3143        24  POPC      H8R             0.9511359225       23.1355504261        9.0328857359  MEMB      24              0.0000000000
      3144        24  POPC      H8S             0.0086658201       21.9854946852        7.9558309783  MEMB      24              0.0000000000
      3145        24  POPC      C29             1.5937567928       23.1529384516        6.9678472257  MEMB      24              0.0000000000
      3146        24  POPC      H91             2.5858001598       22.7965582374        6.6294677009  MEMB      24              0.0000000000
      3147        24  POPC      C210            0.9543828657       24.0358457108        6.2125372928  MEMB      24              0.0000000000
      3148        24  POPC      H101            1.4448160856       24.4131284571        5.3038340741  MEMB      24              0.0000000000
      3149        24  POPC      C211           -0.4536800894       24.4630508523        6.4149938057  MEMB      24              0.0000000000
      3150        24  POPC      H11R           -0.4941196797       25.5605129655        6.2965666620  MEMB      24              0.0000000000
      3151        24  POPC      H11S           -0.8046109109       24.2513811026        7.4379468746  MEMB      24              0.0000000000
      3152        24  POPC      C212           -1.3482515988       23.6853711322        5.4301335137  MEMB      24              0.0000000000
      3153        24  POPC      H12R           -2.3993259607       24.0112816994        5.5481569023  MEMB      24              0.0000000000
      3154        24  POPC      H12S           -1.3273241591       22.5942972400        5.6250523576  MEMB      24              0.0000000000
      3155        24  POPC      C213           -0.9485913235       23.8896096438        3.9774906352  MEMB      24              0.0000000000
      3156        24  POPC      H13R           -0.0835281749       23.3027338937        3.6815129414  MEMB      24              0.0000000000
      3157        24  POPC      H13S           -0.5947209777       24.9338695780        3.9004049863  MEMB      24              0.0000000000
      3158        24  POPC      C214           -2.0419511401       23.5489132415        2.9880946092  MEMB      24              0.0000000000
      3159        24  POPC      H14R           -1.7856457494       23.9198617770        1.9611796589  MEMB      24              0.0000000000
      3160        24  POPC      H14S           -3.0762592981       23.8973070051        3.2528595739  MEMB      24              0.0000000000
      3161        24  POPC      C215           -2.5400160605       22.2218090180        2.9956686437  MEMB      24              0.0000000000
      3162        24  POPC      H15R           -3.0136324471       22.0023907563        3.9772638277  MEMB      24              0.0000000000
      3163        24  POPC      H15S           -1.5883649849       21.6675838871        2.8684581080  MEMB      24              0.0000000000
      3164        24  POPC      C216           -3.5503551246       22.3561237732        1.8347569402  MEMB      24              0.0000000000
      3165        24  POPC      H16R           -2.8196777175       22.5620705358        1.0396468877  MEMB      24              0.0000000000
      3166        24  POPC      H16S           -4.1539362030       23.2494953763        1.8310263197  MEMB      24              0.0000000000
      3167        24  POPC      C217           -4.7298676916       21.3946645039        1.5944622083  MEMB      24              0.0000000000
      3168        24  POPC      H17R           -5.1334642459       20.9105276374        2.5353864628  MEMB      24              0.0000000000
      3169        24  POPC      H17S           -3.8560008404       20.9833899444        1.2049116577  MEMB      24              0.0000000000
      3170        24  POPC      C218           -4.8639262492       20.2938576607        0.5790652490  MEMB      24              0.0000000000
      3171        24  POPC      H18R           -5.0824837541       19.2136297851        0.7427775372  MEMB      24              0.0000000000
      3172        24  POPC      H18S           -4.6393634192       20.4643426826       -0.4906947382  MEMB      24              0.0000000000
      3173        24  POPC      H18T           -5.8011312203       20.6396937750        0.8372988792  MEMB      24              0.0000000000
      3174        24  POPC      C33            -0.7181674643       18.2459572817       11.0996537768  MEMB      24              0.0000000000
      3175        24  POPC      H3X             0.1025477617       17.6502370598       10.6517389288  MEMB      24              0.0000000000
      3176        24  POPC      H3Y            -0.6648352503       19.3057772730       10.7577652415  MEMB      24              0.0000000000
      3177        24  POPC      C34            -1.9683053898       17.6113452931       10.5683972745  MEMB      24              0.0000000000
      3178        24  POPC      H4X            -2.6909529927       18.1998488572       11.1298196835  MEMB      24              0.0000000000
      3179        24  POPC      H4Y            -2.1210654378       16.5553412921       10.8921323613  MEMB      24              0.0000000000
      3180        24  POPC      C35            -2.0869909353       17.7272990929        9.0433923380  MEMB      24              0.0000000000
      3181        24  POPC      H5X            -3.0702021623       17.2649448152        8.7970117562  MEMB      24              0.0000000000
      3182        24  POPC      H5Y            -1.3736494396       17.0017593884        8.6022046475  MEMB      24              0.0000000000
      3183        24  POPC      C36            -1.8256910198       19.1298321227        8.3747882809  MEMB      24              0.0000000000
      3184        24  POPC      H6X            -0.8726906888       19.5880344104        8.6522318440  MEMB      24              0.0000000000
      3185        24  POPC      H6Y            -2.3878336207       20.0594591502        8.5077364306  MEMB      24              0.0000000000
      3186        24  POPC      C37            -2.2416245384       19.1002575149        6.9438744755  MEMB      24              0.0000000000
      3187        24  POPC      H7X            -2.5579400455       20.1063864405        6.5420090361  MEMB      24              0.0000000000
      3188        24  POPC      H7Y            -3.1325251171       18.4395270521        6.9111514508  MEMB      24              0.0000000000
      3189        24  POPC      C38            -0.9936018646       18.5883817382        6.3291769667  MEMB      24              0.0000000000
      3190        24  POPC      H8X            -1.0440722452       17.4726599170        6.3354389924  MEMB      24              0.0000000000
      3191        24  POPC      H8Y            -0.1211836716       18.9895584720        6.8738186542  MEMB      24              0.0000000000
      3192        24  POPC      C39            -0.8915620474       19.1204454407        4.9810029875  MEMB      24              0.0000000000
      3193        24  POPC      H9X            -1.3946304435       20.1233317733        4.8216337721  MEMB      24              0.0000000000
      3194        24  POPC      H9Y            -1.4195685136       18.2017162385        4.6129995898  MEMB      24              0.0000000000
      3195        24  POPC      C310            0.1643245448       18.8155112905        4.0326702077  MEMB      24              0.0000000000
      3196        24  POPC      H10X           -0.1977832782       19.0013485156        2.9903465150  MEMB      24              0.0000000000
      3197        24  POPC      H10Y            0.4526884591       17.7517696183        4.1146447634  MEMB      24              0.0000000000
      3198        24  POPC      C311            1.1808012132       19.7916637272        4.3447302893  MEMB      24              0.0000000000
      3199        24  POPC      H11X            1.7912267731       19.4680996973        5.2201655663  MEMB      24              0.0000000000
      3200        24  POPC      H11Y            0.7226783707       20.7769556814        4.5885714178  MEMB      24              0.0000000000
      3201        24  POPC      C312            1.9006073306       19.9581800808        3.0737553429  MEMB      24              0.0000000000
      3202        24  POPC      H12X            1.3216258046       20.2532196119        2.1879608166  MEMB      24              0.0000000000
      3203        24  POPC      H12Y            2.4016206200       18.9871056542        2.8557384587  MEMB      24              0.0000000000
      3204        24  POPC      C313            2.8374813549       21.0154073548        3.4178823795  MEMB      24              0.0000000000
      3205        24  POPC      H13X            3.4823715841       21.1435823259        2.5773850362  MEMB      24              0.0000000000
      3206        24  POPC      H13Y            3.3350719854       20.3732915855        4.1845404944  MEMB      24              0.0000000000
      3207        24  POPC      C314            2.4622773753       22.4530033036        3.8355864949  MEMB      24              0.0000000000
      3208        24  POPC      H14X            3.3025487811       23.0559553912        4.2536044485  MEMB      24              0.0000000000
      3209        24  POPC      H14Y            1.6818983586       22.4288454894        4.5642066548  MEMB      24              0.0000000000
      3210        24  POPC      C315            2.0431523272       23.3115983623        2.6899040327  MEMB      24              0.0000000000
      3211        24  POPC      H15X            1.6806529674       24.3254383563        2.8668565242  MEMB      24              0.0000000000
      3212        24  POPC      H15Y            1.2638558767       22.6807546256        2.1355281245  MEMB      24              0.0000000000
      3213        24  POPC      C316            3.2846298075       23.5498748528        1.9633841764  MEMB      24              0.0000000000
      3214        24  POPC      H16X            4.3000646752       23.1867400139        2.2781615451  MEMB      24              0.0000000000
      3215        24  POPC      H16Y            3.3388710420       24.0599187308        0.9805733587  MEMB      24              0.0000000000
      3216        24  POPC      H16Z            2.9118723980       22.7382669961        1.5994915619  MEMB      24              0.0000000000
      3217        25  POPC      N              20.1096371419        6.4356265084       17.4870974271  MEMB      25              0.0000000000
      3218        25  POPC      C12            21.1849411155        6.0442760066       18.4942402363  MEMB      25              0.0000000000
      3219        25  POPC      H12A           21.6922329102        5.1476567384       18.1486881144  MEMB      25              0.0000000000
      3220        25  POPC      H12B           20.7093481066        5.7740546420       19.4326717028  MEMB      25              0.0000000000
      3221        25  POPC      C13            19.0265128841        7.2301774936       18.1199010937  MEMB      25              0.0000000000
      3222        25  POPC      H13A           18.5428254462        6.6711671700       18.9231971474  MEMB      25              0.0000000000
      3223        25  POPC      H13B           19.4118603015        8.1528785297       18.5324299200  MEMB      25              0.0000000000
      3224        25  POPC      H13C           18.2498448097        7.4188206088       17.3876487013  MEMB      25              0.0000000000
      3225        25  POPC      C14            20.7034522656        7.1430713955       16.3162666957  MEMB      25              0.0000000000
      3226        25  POPC      H14A           21.1795419392        8.0535236391       16.6676261428  MEMB      25              0.0000000000
      3227        25  POPC      H14B           21.4809606753        6.5199013115       15.8808454723  MEMB      25              0.0000000000
      3228        25  POPC      H14C           19.9527068721        7.3462470459       15.5650285793  MEMB      25              0.0000000000
      3229        25  POPC      C15            19.4742557608        5.2146764752       16.9766694889  MEMB      25              0.0000000000
      3230        25  POPC      H15A           19.2546416815        4.4572198031       17.7367161200  MEMB      25              0.0000000000
      3231        25  POPC      H15B           20.1961997060        4.7585494790       16.2969897923  MEMB      25              0.0000000000
      3232        25  POPC      H15C           18.5822580082        5.4020786069       16.3940723153  MEMB      25              0.0000000000
      3233        25  POPC      C11            22.3103906901        7.0607215300       18.7977888179  MEMB      25              0.0000000000
      3234        25  POPC      H11A           22.9529762573        7.1854086639       17.9014238724  MEMB      25              0.0000000000
      3235        25  POPC      H11B           22.9529012286        6.5845280647       19.5812670407  MEMB      25              0.0000000000
      3236        25  POPC      P              21.9428030683        8.7949413383       20.7032517297  MEMB      25              0.0000000000
      3237        25  POPC      O13            23.2274415400        8.3323437373       21.2673025322  MEMB      25              0.0000000000
      3238        25  POPC      O14            20.6411322149        8.5348688255       21.3585687783  MEMB      25              0.0000000000
      3239        25  POPC      O12            21.8109733353        8.3394172972       19.1781130216  MEMB      25              0.0000000000
      3240        25  POPC      O11            22.0955501236       10.3512883271       20.5411905985  MEMB      25              0.0000000000
      3241        25  POPC      C1             23.1954127483       10.8354481091       19.7806318822  MEMB      25              0.0000000000
      3242        25  POPC      HA             23.8490123779       10.0661091578       19.3181598357  MEMB      25              0.0000000000
      3243        25  POPC      HB             23.8010806708       11.4597602740       20.4774264913  MEMB      25              0.0000000000
      3244        25  POPC      C2             22.5953839591       11.7131771532       18.6903852144  MEMB      25              0.0000000000
      3245        25  POPC      HS             22.2853911012       12.4801153502       19.3793211022  MEMB      25              0.0000000000
      3246        25  POPC      O21            21.4760543328       11.0740404659       18.0684881188  MEMB      25              0.0000000000
      3247        25  POPC      C21            20.6130563340       11.8694687592       17.5063646984  MEMB      25              0.0000000000
      3248        25  POPC      O22            20.6337721716       13.0889666814       17.4908420632  MEMB      25              0.0000000000
      3249        25  POPC      C22            19.4405089226       11.0014068530       17.0804018083  MEMB      25              0.0000000000
      3250        25  POPC      H2R            18.9837584836       10.6315790188       18.0152457972  MEMB      25              0.0000000000
      3251        25  POPC      H2S            19.8145902889       10.1581930215       16.4720585446  MEMB      25              0.0000000000
      3252        25  POPC      C3             23.5595514182       12.1717672242       17.5757123013  MEMB      25              0.0000000000
      3253        25  POPC      HX             24.4679772584       12.5734372596       18.0681030995  MEMB      25              0.0000000000
      3254        25  POPC      HY             23.1220741476       13.0176223309       16.9863329049  MEMB      25              0.0000000000
      3255        25  POPC      O31            23.9260871844       11.0537370541       16.7632116429  MEMB      25              0.0000000000
      3256        25  POPC      C31            23.3035139854       10.9669075677       15.5916279088  MEMB      25              0.0000000000
      3257        25  POPC      O32            22.5729873712       11.7914475226       15.0806816058  MEMB      25              0.0000000000
      3258        25  POPC      C32            23.5839228079        9.5778957384       15.0785146208  MEMB      25              0.0000000000
      3259        25  POPC      H2X            23.4294106713        8.8213756759       15.8655393824  MEMB      25              0.0000000000
      3260        25  POPC      H2Y            24.6353695776        9.5124878964       14.8437887748  MEMB      25              0.0000000000
      3261        25  POPC      C23            18.4197146459       11.7462572635       16.2496594130  MEMB      25              0.0000000000
      3262        25  POPC      H3R            18.2285139892       12.7523674906       16.7055173949  MEMB      25              0.0000000000
      3263        25  POPC      H3S            17.4180673711       11.3469836028       16.1987038779  MEMB      25              0.0000000000
      3264        25  POPC      C24            18.8299680608       11.7807207818       14.7812920174  MEMB      25              0.0000000000
      3265        25  POPC      H4R            19.8645414224       12.1847753693       14.7685862628  MEMB      25              0.0000000000
      3266        25  POPC      H4S            17.9691460070       12.3916285767       14.3752054327  MEMB      25              0.0000000000
      3267        25  POPC      C25            19.0563459180       10.7008177643       13.7273023353  MEMB      25              0.0000000000
      3268        25  POPC      H5R            18.0309047474       10.4125731180       13.6609411855  MEMB      25              0.0000000000
      3269        25  POPC      H5S            19.8092625022        9.9976391100       14.1092333085  MEMB      25              0.0000000000
      3270        25  POPC      C26            19.2882590155       10.9978751531       12.2029885752  MEMB      25              0.0000000000
      3271        25  POPC      H6R            18.5186514582       11.7425881241       11.9026189647  MEMB      25              0.0000000000
      3272        25  POPC      H6S            19.0928793554       10.1458785615       11.5382196721  MEMB      25              0.0000000000
      3273        25  POPC      C27            20.7136254453       11.4569846214       11.9175753104  MEMB      25              0.0000000000
      3274        25  POPC      H7R            21.6099480329       11.1354142197       12.4361984670  MEMB      25              0.0000000000
      3275        25  POPC      H7S            20.5498736232       12.1949226788       12.6646007767  MEMB      25              0.0000000000
      3276        25  POPC      C28            21.1398399635       11.9715827848       10.5336131839  MEMB      25              0.0000000000
      3277        25  POPC      H8R            21.9961942765       12.6746494488       10.7292177010  MEMB      25              0.0000000000
      3278        25  POPC      H8S            20.3462901145       12.4703784508        9.9590450617  MEMB      25              0.0000000000
      3279        25  POPC      C29            21.6092406895       11.0064365853        9.5896002763  MEMB      25              0.0000000000
      3280        25  POPC      H91            22.2370659977       10.3035323030       10.1229763131  MEMB      25              0.0000000000
      3281        25  POPC      C210           21.3455911252       11.0147895497        8.2750048432  MEMB      25              0.0000000000
      3282        25  POPC      H101           21.8407912847       10.2807867033        7.6613646813  MEMB      25              0.0000000000
      3283        25  POPC      C211           20.5248899753       12.0059619021        7.4970930103  MEMB      25              0.0000000000
      3284        25  POPC      H11R           20.9871736642       12.2683501000        6.5226210376  MEMB      25              0.0000000000
      3285        25  POPC      H11S           20.6746239472       12.9694769871        7.9358199676  MEMB      25              0.0000000000
      3286        25  POPC      C212           19.0341405127       11.6702500444        7.3029284323  MEMB      25              0.0000000000
      3287        25  POPC      H12R           18.7480248813       12.4530632440        6.6100933502  MEMB      25              0.0000000000
      3288        25  POPC      H12S           18.3373278706       11.8432260231        8.1523677409  MEMB      25              0.0000000000
      3289        25  POPC      C213           18.7769121627       10.2663795671        6.7219676596  MEMB      25              0.0000000000
      3290        25  POPC      H13R           17.7035394206       10.1695216645        6.4438307945  MEMB      25              0.0000000000
      3291        25  POPC      H13S           18.9953079958        9.5549916738        7.5447178686  MEMB      25              0.0000000000
      3292        25  POPC      C214           19.6634549068        9.8552955754        5.5344082782  MEMB      25              0.0000000000
      3293        25  POPC      H14R           20.7278672842       10.0047410283        5.7223417147  MEMB      25              0.0000000000
      3294        25  POPC      H14S           19.4712544056       10.4456272181        4.6714705251  MEMB      25              0.0000000000
      3295        25  POPC      C215           19.3205865538        8.5475796292        4.8416024821  MEMB      25              0.0000000000
      3296        25  POPC      H15R           18.2949877488        8.7044556618        4.4248875453  MEMB      25              0.0000000000
      3297        25  POPC      H15S           19.3148111555        7.7758213244        5.6149419751  MEMB      25              0.0000000000
      3298        25  POPC      C216           20.2860822021        8.1446221136        3.7077775719  MEMB      25              0.0000000000
      3299        25  POPC      H16R           19.9223076290        7.2125170338        3.2140048681  MEMB      25              0.0000000000
      3300        25  POPC      H16S           21.3197746806        8.1030777477        4.0603854920  MEMB      25              0.0000000000
      3301        25  POPC      C217           20.2899686096        9.1712014207        2.6391764414  MEMB      25              0.0000000000
      3302        25  POPC      H17R           20.4256164128       10.1916829990        3.0763739947  MEMB      25              0.0000000000
      3303        25  POPC      H17S           19.2337316315        8.9257202504        2.3435564153  MEMB      25              0.0000000000
      3304        25  POPC      C218           21.0452660939        9.2042466685        1.3367448213  MEMB      25              0.0000000000
      3305        25  POPC      H18R           20.7347632987        8.3367211605        0.7637414370  MEMB      25              0.0000000000
      3306        25  POPC      H18S           22.1246248658        9.1766157096        1.5202201751  MEMB      25              0.0000000000
      3307        25  POPC      H18T           20.7740327877       10.1100454073        0.7308468803  MEMB      25              0.0000000000
      3308        25  POPC      C33            22.8508281176        9.2991812186       13.7759932850  MEMB      25              0.0000000000
      3309        25  POPC      H3X            23.0992941703       10.0938077979       13.0326661759  MEMB      25              0.0000000000
      3310        25  POPC      H3Y            21.7618285756        9.3220936013       13.9855324440  MEMB      25              0.0000000000
      3311        25  POPC      C34            23.3062743640        7.9750321218       13.1792471007  MEMB      25              0.0000000000
      3312        25  POPC      H4X            23.1644526194        7.1732612678       13.9390496514  MEMB      25              0.0000000000
      3313        25  POPC      H4Y            24.3909555013        8.0376731381       12.9330886759  MEMB      25              0.0000000000
      3314        25  POPC      C35            22.5543583331        7.6361305059       11.9050598212  MEMB      25              0.0000000000
      3315        25  POPC      H5X            22.8582800223        6.6231119399       11.5454836684  MEMB      25              0.0000000000
      3316        25  POPC      H5Y            22.7516665619        8.3712471956       11.0973527215  MEMB      25              0.0000000000
      3317        25  POPC      C36            21.0671647322        7.6516057405       12.1018991411  MEMB      25              0.0000000000
      3318        25  POPC      H6X            20.6048975725        8.6447045317       12.2312946208  MEMB      25              0.0000000000
      3319        25  POPC      H6Y            20.8495688071        7.0606554185       13.0338014346  MEMB      25              0.0000000000
      3320        25  POPC      C37            20.4295010008        6.9262959128       10.9489172077  MEMB      25              0.0000000000
      3321        25  POPC      H7X            19.3990807034        6.8878821941       11.3561464612  MEMB      25              0.0000000000
      3322        25  POPC      H7Y            20.9331541570        5.9285547984       10.8949854733  MEMB      25              0.0000000000
      3323        25  POPC      C38            20.2678146191        7.3523518954        9.4904872983  MEMB      25              0.0000000000
      3324        25  POPC      H8X            19.8925951538        8.3827671883        9.4372090161  MEMB      25              0.0000000000
      3325        25  POPC      H8Y            19.4642415582        6.7598944071        8.9795340336  MEMB      25              0.0000000000
      3326        25  POPC      C39            21.4904699399        6.9853119942        8.6783993659  MEMB      25              0.0000000000
      3327        25  POPC      H9X            21.8279551799        5.9399092240        8.8819549292  MEMB      25              0.0000000000
      3328        25  POPC      H9Y            22.2704483914        7.6904455645        9.0162330283  MEMB      25              0.0000000000
      3329        25  POPC      C310           21.2168750439        7.1079052200        7.1867728130  MEMB      25              0.0000000000
      3330        25  POPC      H10X           20.9054877372        8.1574621404        7.0195368294  MEMB      25              0.0000000000
      3331        25  POPC      H10Y           20.3605051103        6.4463557305        6.9072503970  MEMB      25              0.0000000000
      3332        25  POPC      C311           22.4365347044        6.7399474487        6.3386537736  MEMB      25              0.0000000000
      3333        25  POPC      H11X           22.1650365686        6.6699020260        5.2665780926  MEMB      25              0.0000000000
      3334        25  POPC      H11Y           22.7368851451        5.7157878381        6.6617115550  MEMB      25              0.0000000000
      3335        25  POPC      C312           23.6330533258        7.6951394454        6.5246214090  MEMB      25              0.0000000000
      3336        25  POPC      H12X           24.5653856573        7.1685956245        6.2311663328  MEMB      25              0.0000000000
      3337        25  POPC      H12Y           23.7174818057        7.9202246194        7.6102199207  MEMB      25              0.0000000000
      3338        25  POPC      C313           23.5344080678        9.0737430809        5.8279383327  MEMB      25              0.0000000000
      3339        25  POPC      H13X           24.2207561490        9.7691377314        6.3644113452  MEMB      25              0.0000000000
      3340        25  POPC      H13Y           22.5128634634        9.4485345716        5.9228951200  MEMB      25              0.0000000000
      3341        25  POPC      C314           23.9366332668        9.1336988322        4.3543433002  MEMB      25              0.0000000000
      3342        25  POPC      H14X           23.3487882999        8.4351875457        3.7224109507  MEMB      25              0.0000000000
      3343        25  POPC      H14Y           24.9984664299        8.8389295817        4.4049395555  MEMB      25              0.0000000000
      3344        25  POPC      C315           24.0070659766       10.5130629291        3.6886477306  MEMB      25              0.0000000000
      3345        25  POPC      H15X           23.6852250715       11.3016949430        4.4046171214  MEMB      25              0.0000000000
      3346        25  POPC      H15Y           23.2976692260       10.5339281327        2.8330537049  MEMB      25              0.0000000000
      3347        25  POPC      C316           25.4235005575       10.7647264345        3.1503616535  MEMB      25              0.0000000000
      3348        25  POPC      H16X           25.6936217885        9.9778445517        2.4154222318  MEMB      25              0.0000000000
      3349        25  POPC      H16Y           26.1588202594       10.7238680980        3.9824015327  MEMB      25              0.0000000000
      3350        25  POPC      H16Z           25.5555627918       11.7300785141        2.6262656825  MEMB      25              0.0000000000
      3351        26  POPC      N              18.2331880142      -16.3402644875       19.3489838426  MEMB      26              0.0000000000
      3352        26  POPC      C12            17.8758981936      -17.7664966234       19.7587363189  MEMB      26              0.0000000000
      3353        26  POPC      H12A           18.6538838788      -18.1245823497       20.4218498902  MEMB      26              0.0000000000
      3354        26  POPC      H12B           17.9209644908      -18.3991437171       18.8660502474  MEMB      26              0.0000000000
      3355        26  POPC      C13            18.0295443008      -15.3031067992       20.4196220998  MEMB      26              0.0000000000
      3356        26  POPC      H13A           18.2801955792      -14.3150317215       20.0362139301  MEMB      26              0.0000000000
      3357        26  POPC      H13B           16.9837882372      -15.2227745524       20.7154760460  MEMB      26              0.0000000000
      3358        26  POPC      H13C           18.6174977759      -15.5067596635       21.3034944920  MEMB      26              0.0000000000
      3359        26  POPC      C14            19.6731868977      -16.3238392590       18.9575728139  MEMB      26              0.0000000000
      3360        26  POPC      H14A           19.8318778138      -17.0065595774       18.1342918639  MEMB      26              0.0000000000
      3361        26  POPC      H14B           19.9560342048      -15.3415461386       18.6142394870  MEMB      26              0.0000000000
      3362        26  POPC      H14C           20.2982000853      -16.6170891356       19.7977687799  MEMB      26              0.0000000000
      3363        26  POPC      C15            17.4042868225      -15.9426616485       18.1770535714  MEMB      26              0.0000000000
      3364        26  POPC      H15A           16.3750848447      -15.8152219040       18.5263239464  MEMB      26              0.0000000000
      3365        26  POPC      H15B           17.3467641965      -16.7352700845       17.4326755320  MEMB      26              0.0000000000
      3366        26  POPC      H15C           17.7608633213      -15.0114417380       17.7489422043  MEMB      26              0.0000000000
      3367        26  POPC      C11            16.4891638399      -18.0533102116       20.3995923716  MEMB      26              0.0000000000
      3368        26  POPC      H11A           16.4508119589      -17.5188029772       21.3730384786  MEMB      26              0.0000000000
      3369        26  POPC      H11B           16.3886640154      -19.1328139426       20.6357867470  MEMB      26              0.0000000000
      3370        26  POPC      P              14.8153202675      -18.4309860423       18.3523078498  MEMB      26              0.0000000000
      3371        26  POPC      O13            14.2725265085      -17.4324921358       17.4029515251  MEMB      26              0.0000000000
      3372        26  POPC      O14            13.9531462477      -19.5238140682       18.8566525444  MEMB      26              0.0000000000
      3373        26  POPC      O12            15.3937941576      -17.6351957948       19.5973832417  MEMB      26              0.0000000000
      3374        26  POPC      O11            16.1413528376      -19.0606401459       17.7833153104  MEMB      26              0.0000000000
      3375        26  POPC      C1             16.1296780781      -19.9946333194       16.7029717464  MEMB      26              0.0000000000
      3376        26  POPC      HA             15.8092927286      -19.4933764738       15.7552568108  MEMB      26              0.0000000000
      3377        26  POPC      HB             15.3987471712      -20.8279416825       16.8584694995  MEMB      26              0.0000000000
      3378        26  POPC      C2             17.5607162707      -20.6200093015       16.5577804297  MEMB      26              0.0000000000
      3379        26  POPC      HS             17.7508975439      -21.2775688997       17.4290340942  MEMB      26              0.0000000000
      3380        26  POPC      O21            18.5848917677      -19.6237299945       16.4723486045  MEMB      26              0.0000000000
      3381        26  POPC      C21            19.8049185611      -19.8802943055       15.9862406997  MEMB      26              0.0000000000
      3382        26  POPC      O22            20.2445277686      -20.8497590134       15.4109105613  MEMB      26              0.0000000000
      3383        26  POPC      C22            20.5991328399      -18.6440847854       16.1991700861  MEMB      26              0.0000000000
      3384        26  POPC      H2R            21.5363316912      -18.8981180003       16.7306606576  MEMB      26              0.0000000000
      3385        26  POPC      H2S            20.0128780721      -17.9090031818       16.7759876253  MEMB      26              0.0000000000
      3386        26  POPC      C3             17.5965659708      -21.4633141384       15.3558950913  MEMB      26              0.0000000000
      3387        26  POPC      HX             16.8253845395      -22.2378561811       15.4782297976  MEMB      26              0.0000000000
      3388        26  POPC      HY             18.5257592136      -22.1078046886       15.3289306906  MEMB      26              0.0000000000
      3389        26  POPC      O31            17.3343957138      -20.4744466341       14.2749249697  MEMB      26              0.0000000000
      3390        26  POPC      C31            17.3208643752      -21.1877600143       13.2188055628  MEMB      26              0.0000000000
      3391        26  POPC      O32            17.7858050361      -22.3361451352       13.3061124875  MEMB      26              0.0000000000
      3392        26  POPC      C32            16.4706538033      -20.3621310394       11.9720389753  MEMB      26              0.0000000000
      3393        26  POPC      H2X            17.3447123143      -20.0716729674       11.4126010372  MEMB      26              0.0000000000
      3394        26  POPC      H2Y            15.9052180594      -19.5721692508       12.4484355978  MEMB      26              0.0000000000
      3395        26  POPC      C23            20.8069403767      -18.1716659141       14.7828489315  MEMB      26              0.0000000000
      3396        26  POPC      H3R            21.3254133179      -18.9588956711       14.1774671234  MEMB      26              0.0000000000
      3397        26  POPC      H3S            21.4751019704      -17.2901110731       14.8459502366  MEMB      26              0.0000000000
      3398        26  POPC      C24            19.4235830912      -17.8261824622       14.1987391128  MEMB      26              0.0000000000
      3399        26  POPC      H4R            18.7815551096      -17.3940589654       14.9942930658  MEMB      26              0.0000000000
      3400        26  POPC      H4S            18.9249107002      -18.7273534194       13.7761025047  MEMB      26              0.0000000000
      3401        26  POPC      C25            19.5004694717      -16.8080115286       13.1229811769  MEMB      26              0.0000000000
      3402        26  POPC      H5R            20.2040317535      -16.0187146547       13.4664526984  MEMB      26              0.0000000000
      3403        26  POPC      H5S            18.5448594759      -16.3197295147       12.8545166669  MEMB      26              0.0000000000
      3404        26  POPC      C26            20.0497786151      -17.4421559776       11.8938450145  MEMB      26              0.0000000000
      3405        26  POPC      H6R            20.9655434605      -18.0495613145       12.0937454277  MEMB      26              0.0000000000
      3406        26  POPC      H6S            20.2882656384      -16.4999090167       11.3908343697  MEMB      26              0.0000000000
      3407        26  POPC      C27            19.0865863530      -18.0363841318       10.8895293823  MEMB      26              0.0000000000
      3408        26  POPC      H7R            18.4483372847      -17.1939495434       10.5094395701  MEMB      26              0.0000000000
      3409        26  POPC      H7S            18.5869146656      -18.8625351248       11.3255594951  MEMB      26              0.0000000000
      3410        26  POPC      C28            19.7546588944      -18.6484917452        9.6891713272  MEMB      26              0.0000000000
      3411        26  POPC      H8R            20.2402592729      -17.7019653855        9.5842240243  MEMB      26              0.0000000000
      3412        26  POPC      H8S            19.1868534536      -18.6373208795        8.7289098520  MEMB      26              0.0000000000
      3413        26  POPC      C29            20.8384356154      -19.7063929213        9.7618521414  MEMB      26              0.0000000000
      3414        26  POPC      H91            21.8596193200      -19.3553111315       10.0217028420  MEMB      26              0.0000000000
      3415        26  POPC      C210           20.7044914959      -20.8896892891        9.1554064898  MEMB      26              0.0000000000
      3416        26  POPC      H101           21.5742561568      -21.5675600761        9.1159866432  MEMB      26              0.0000000000
      3417        26  POPC      C211           19.4741359713      -21.2956106041        8.3636314925  MEMB      26              0.0000000000
      3418        26  POPC      H11R           18.6221052134      -20.6202966267        8.5975923913  MEMB      26              0.0000000000
      3419        26  POPC      H11S           19.2933462894      -22.3034506757        8.6498040456  MEMB      26              0.0000000000
      3420        26  POPC      C212           19.3783508203      -21.4791632986        6.8290453282  MEMB      26              0.0000000000
      3421        26  POPC      H12R           20.1262663246      -22.1342344166        6.3480052223  MEMB      26              0.0000000000
      3422        26  POPC      H12S           19.5231674009      -20.4043389823        6.8184743830  MEMB      26              0.0000000000
      3423        26  POPC      C213           18.1395289889      -21.2946135316        5.9730963451  MEMB      26              0.0000000000
      3424        26  POPC      H13R           17.7188606851      -20.3200839417        6.2734165089  MEMB      26              0.0000000000
      3425        26  POPC      H13S           17.5034736850      -22.1322236167        6.2566431398  MEMB      26              0.0000000000
      3426        26  POPC      C214           18.2497347233      -21.1997161524        4.4376246715  MEMB      26              0.0000000000
      3427        26  POPC      H14R           17.2329202122      -21.4212150261        4.0542977898  MEMB      26              0.0000000000
      3428        26  POPC      H14S           18.9589963969      -21.9531108332        4.0170797244  MEMB      26              0.0000000000
      3429        26  POPC      C215           18.5197644896      -19.8092552567        3.8424730676  MEMB      26              0.0000000000
      3430        26  POPC      H15R           18.7019481687      -19.8819233186        2.7521986548  MEMB      26              0.0000000000
      3431        26  POPC      H15S           19.3884709325      -19.4141664803        4.3373447553  MEMB      26              0.0000000000
      3432        26  POPC      C216           17.6709546781      -18.5874892349        4.1200391120  MEMB      26              0.0000000000
      3433        26  POPC      H16R           17.7730370560      -18.3849463589        5.2130840533  MEMB      26              0.0000000000
      3434        26  POPC      H16S           16.6412362747      -18.8189298550        3.8123991592  MEMB      26              0.0000000000
      3435        26  POPC      C217           18.1606587456      -17.3473127470        3.3396935590  MEMB      26              0.0000000000
      3436        26  POPC      H17R           17.7880929443      -16.4235714581        3.8224750593  MEMB      26              0.0000000000
      3437        26  POPC      H17S           17.8129961067      -17.4068855753        2.2962702593  MEMB      26              0.0000000000
      3438        26  POPC      C218           19.6432358060      -17.2780964716        3.1622819314  MEMB      26              0.0000000000
      3439        26  POPC      H18R           20.0947774670      -17.5881145985        4.0533397541  MEMB      26              0.0000000000
      3440        26  POPC      H18S           20.1537578694      -16.3593298254        3.0362976423  MEMB      26              0.0000000000
      3441        26  POPC      H18T           19.9514850339      -17.8409219878        2.2878544097  MEMB      26              0.0000000000
      3442        26  POPC      C33            15.6021808615      -20.8499596195       10.6284637581  MEMB      26              0.0000000000
      3443        26  POPC      H3X            14.9635782244      -21.7110240615       10.5975228722  MEMB      26              0.0000000000
      3444        26  POPC      H3Y            16.4502334209      -21.1768922610       10.1172074375  MEMB      26              0.0000000000
      3445        26  POPC      C34            14.8648281733      -20.3552968538        9.4117634378  MEMB      26              0.0000000000
      3446        26  POPC      H4X            14.1200799086      -19.6351566053        9.7620333654  MEMB      26              0.0000000000
      3447        26  POPC      H4Y            14.2739669674      -21.2026593517        8.9116205822  MEMB      26              0.0000000000
      3448        26  POPC      C35            15.9591461824      -20.0643203328        8.4223230511  MEMB      26              0.0000000000
      3449        26  POPC      H5X            16.3843747021      -20.9264549746        7.8809008317  MEMB      26              0.0000000000
      3450        26  POPC      H5Y            16.7783672173      -19.5517991586        8.9747153987  MEMB      26              0.0000000000
      3451        26  POPC      C36            15.4272133752      -19.3868330295        7.2676755322  MEMB      26              0.0000000000
      3452        26  POPC      H6X            14.7713818356      -20.0992496578        6.7077514823  MEMB      26              0.0000000000
      3453        26  POPC      H6Y            16.3066613424      -19.1126237512        6.6507707831  MEMB      26              0.0000000000
      3454        26  POPC      C37            14.7266898523      -18.1749732810        7.7720040574  MEMB      26              0.0000000000
      3455        26  POPC      H7X            15.3367408216      -17.7420139987        8.6057270957  MEMB      26              0.0000000000
      3456        26  POPC      H7Y            13.7234275665      -18.4349796482        8.1775328109  MEMB      26              0.0000000000
      3457        26  POPC      C38            14.6979831264      -17.2584554169        6.5868754224  MEMB      26              0.0000000000
      3458        26  POPC      H8X            15.7619275843      -17.0241277161        6.3507720227  MEMB      26              0.0000000000
      3459        26  POPC      H8Y            14.1964564855      -16.3315793895        6.9031285307  MEMB      26              0.0000000000
      3460        26  POPC      C39            14.0694490853      -17.9321651703        5.3529220287  MEMB      26              0.0000000000
      3461        26  POPC      H9X            12.9967789870      -18.1494560119        5.5615601215  MEMB      26              0.0000000000
      3462        26  POPC      H9Y            14.5746012509      -18.8733153777        5.0554030017  MEMB      26              0.0000000000
      3463        26  POPC      C310           14.0961447113      -17.0448285716        4.1335258109  MEMB      26              0.0000000000
      3464        26  POPC      H10X           15.0595929439      -16.4909222591        4.0138909380  MEMB      26              0.0000000000
      3465        26  POPC      H10Y           13.2639375545      -16.3646918356        4.4096187631  MEMB      26              0.0000000000
      3466        26  POPC      C311           13.6299454371      -17.6954021522        2.8364360654  MEMB      26              0.0000000000
      3467        26  POPC      H11X           12.5479695802      -17.9041852565        2.9696591855  MEMB      26              0.0000000000
      3468        26  POPC      H11Y           14.1483380357      -18.6690641373        2.7008109377  MEMB      26              0.0000000000
      3469        26  POPC      C312           13.8851183212      -16.8679328579        1.5611706551  MEMB      26              0.0000000000
      3470        26  POPC      H12X           13.8898368389      -15.7848339153        1.7830600647  MEMB      26              0.0000000000
      3471        26  POPC      H12Y           13.0105055401      -17.0411754478        0.9033280209  MEMB      26              0.0000000000
      3472        26  POPC      C313           15.1921679499      -17.4419886057        0.9477024389  MEMB      26              0.0000000000
      3473        26  POPC      H13X           14.9054729213      -18.4975835116        0.7287961124  MEMB      26              0.0000000000
      3474        26  POPC      H13Y           16.0021133889      -17.3460571789        1.6743901427  MEMB      26              0.0000000000
      3475        26  POPC      C314           15.8569003280      -16.9305916212       -0.3194151459  MEMB      26              0.0000000000
      3476        26  POPC      H14X           16.3578240741      -15.9527766524       -0.3644820256  MEMB      26              0.0000000000
      3477        26  POPC      H14Y           14.8906519050      -16.6756637699       -0.8211353654  MEMB      26              0.0000000000
      3478        26  POPC      C315           16.9231655365      -17.9012321671       -0.9996825672  MEMB      26              0.0000000000
      3479        26  POPC      H15X           17.3434878199      -17.5712580508       -2.0070646367  MEMB      26              0.0000000000
      3480        26  POPC      H15Y           16.6463614672      -18.9506113315       -1.2474990870  MEMB      26              0.0000000000
      3481        26  POPC      C316           18.1488303288      -17.8462399051       -0.4508870132  MEMB      26              0.0000000000
      3482        26  POPC      H16X           17.9839262423      -18.2935431276        0.5276155869  MEMB      26              0.0000000000
      3483        26  POPC      H16Y           18.3490337672      -16.7327235730       -0.5268958853  MEMB      26              0.0000000000
      3484        26  POPC      H16Z           18.8062776940      -18.4341720942       -1.1689508671  MEMB      26              0.0000000000
      3485        27  POPC      N             -15.9685547670       17.3281508623       20.7767378349  MEMB      27              0.0000000000
      3486        27  POPC      C12           -14.6088831886       17.2689686486       20.0554807752  MEMB      27              0.0000000000
      3487        27  POPC      H12A          -14.6771135402       16.5032405404       19.2788629313  MEMB      27              0.0000000000
      3488        27  POPC      H12B          -13.8256464225       17.0692922222       20.7534470893  MEMB      27              0.0000000000
      3489        27  POPC      C13           -16.0441136411       18.5752506047       21.6029349095  MEMB      27              0.0000000000
      3490        27  POPC      H13A          -15.7503938644       19.4245043748       20.9838262632  MEMB      27              0.0000000000
      3491        27  POPC      H13B          -17.0481776671       18.8042436749       21.9482493745  MEMB      27              0.0000000000
      3492        27  POPC      H13C          -15.3878513721       18.5227521913       22.4637919997  MEMB      27              0.0000000000
      3493        27  POPC      C14           -17.1465707876       17.3108472313       19.8421603138  MEMB      27              0.0000000000
      3494        27  POPC      H14A          -17.2653441321       18.2807001774       19.3384399441  MEMB      27              0.0000000000
      3495        27  POPC      H14B          -16.9950947982       16.6313414114       19.0105792927  MEMB      27              0.0000000000
      3496        27  POPC      H14C          -18.0697546038       17.0965156067       20.3397218317  MEMB      27              0.0000000000
      3497        27  POPC      C15           -15.9609687335       16.1376701917       21.6502917334  MEMB      27              0.0000000000
      3498        27  POPC      H15A          -15.0131596737       16.1003686329       22.1925194422  MEMB      27              0.0000000000
      3499        27  POPC      H15B          -16.0439637514       15.2248396945       21.0674672229  MEMB      27              0.0000000000
      3500        27  POPC      H15C          -16.7463404587       16.2066551831       22.3818724562  MEMB      27              0.0000000000
      3501        27  POPC      C11           -14.0918409267       18.4797758009       19.3540328524  MEMB      27              0.0000000000
      3502        27  POPC      H11A          -13.1785745035       18.2822552093       18.7373774944  MEMB      27              0.0000000000
      3503        27  POPC      H11B          -13.9843867888       19.3904711320       19.9812510678  MEMB      27              0.0000000000
      3504        27  POPC      P             -15.0254765245       19.5545966585       17.4220282369  MEMB      27              0.0000000000
      3505        27  POPC      O13           -16.4883056951       19.6188541630       17.2057811220  MEMB      27              0.0000000000
      3506        27  POPC      O14           -14.2364593181       18.9959327035       16.3087576203  MEMB      27              0.0000000000
      3507        27  POPC      O12           -15.1352680951       18.6014728450       18.5288363607  MEMB      27              0.0000000000
      3508        27  POPC      O11           -14.1773748112       20.8902446959       17.9733863906  MEMB      27              0.0000000000
      3509        27  POPC      C1            -13.8240350052       22.0020127911       18.8715111540  MEMB      27              0.0000000000
      3510        27  POPC      HA            -13.9038398953       21.6654424520       19.8859876289  MEMB      27              0.0000000000
      3511        27  POPC      HB            -14.5757449347       22.8140759460       19.0361518431  MEMB      27              0.0000000000
      3512        27  POPC      C2            -12.6185801189       23.0550800189       18.5024603494  MEMB      27              0.0000000000
      3513        27  POPC      HS            -12.9655046954       24.0216571116       19.0199618607  MEMB      27              0.0000000000
      3514        27  POPC      O21           -12.1806256868       23.1776762135       17.1297343774  MEMB      27              0.0000000000
      3515        27  POPC      C21           -12.7654277913       23.8349566919       16.4450036437  MEMB      27              0.0000000000
      3516        27  POPC      O22           -13.2727623993       24.8547087915       16.9735306017  MEMB      27              0.0000000000
      3517        27  POPC      C22           -13.2708119969       22.7258886256       14.9385024282  MEMB      27              0.0000000000
      3518        27  POPC      H2R           -13.1253007203       21.7619380822       15.0978888916  MEMB      27              0.0000000000
      3519        27  POPC      H2S           -12.3323093889       23.2323508242       14.6511013852  MEMB      27              0.0000000000
      3520        27  POPC      C3            -11.2804952998       22.8018383027       19.0381596086  MEMB      27              0.0000000000
      3521        27  POPC      HX            -11.3693612883       22.7390700528       20.1223425039  MEMB      27              0.0000000000
      3522        27  POPC      HY            -10.6261218806       23.6801285948       18.7643733199  MEMB      27              0.0000000000
      3523        27  POPC      O31           -10.9157966987       21.5548085634       18.3788454990  MEMB      27              0.0000000000
      3524        27  POPC      C31           -10.3196145745       21.6718429477       17.1595732258  MEMB      27              0.0000000000
      3525        27  POPC      O32            -9.7711607132       22.6733697204       16.7383351923  MEMB      27              0.0000000000
      3526        27  POPC      C32           -10.3914036761       20.3747720397       16.4066670128  MEMB      27              0.0000000000
      3527        27  POPC      H2X           -11.0036147065       19.6467157477       16.9762891409  MEMB      27              0.0000000000
      3528        27  POPC      H2Y            -9.3272890784       20.1269369471       16.3578887105  MEMB      27              0.0000000000
      3529        27  POPC      C23           -15.0472022576       22.5833269108       13.9022862271  MEMB      27              0.0000000000
      3530        27  POPC      H3R           -15.6271900768       23.5717334768       13.6864008157  MEMB      27              0.0000000000
      3531        27  POPC      H3S           -16.0923953549       22.8881855183       14.2691241832  MEMB      27              0.0000000000
      3532        27  POPC      C24           -15.4754618601       22.2258342076       12.5286480377  MEMB      27              0.0000000000
      3533        27  POPC      H4R           -16.5594317374       22.6349167552       12.5006786490  MEMB      27              0.0000000000
      3534        27  POPC      H4S           -15.7753559632       21.1969213003       12.5752895886  MEMB      27              0.0000000000
      3535        27  POPC      C25           -14.3760072306       22.4313046766       11.4343687568  MEMB      27              0.0000000000
      3536        27  POPC      H5R           -13.4214311926       22.0576435435       11.7016711775  MEMB      27              0.0000000000
      3537        27  POPC      H5S           -14.2604955698       23.4293319842       11.3297369609  MEMB      27              0.0000000000
      3538        27  POPC      C26           -14.3200287539       22.9679182010       10.0166572304  MEMB      27              0.0000000000
      3539        27  POPC      H6R           -15.0329941968       23.7790827504        9.7380964668  MEMB      27              0.0000000000
      3540        27  POPC      H6S           -14.5194553074       21.9259532981        9.7319958224  MEMB      27              0.0000000000
      3541        27  POPC      C27           -13.2051433185       23.7008979530        9.3096233313  MEMB      27              0.0000000000
      3542        27  POPC      H7R           -13.2223455695       24.8134688367        9.4556536829  MEMB      27              0.0000000000
      3543        27  POPC      H7S           -13.3890466398       23.6257902513        8.2234915084  MEMB      27              0.0000000000
      3544        27  POPC      C28           -11.9351215606       22.9806877292        9.5666937746  MEMB      27              0.0000000000
      3545        27  POPC      H8R           -11.6013056120       23.2096114604       10.6022292431  MEMB      27              0.0000000000
      3546        27  POPC      H8S           -11.3041117878       23.4218271488        8.8210171783  MEMB      27              0.0000000000
      3547        27  POPC      C29           -12.1177576711       21.5261380597        9.2685269274  MEMB      27              0.0000000000
      3548        27  POPC      H91           -12.6463927918       21.0047311349       10.0814387939  MEMB      27              0.0000000000
      3549        27  POPC      C210          -11.7637389077       20.8400976763        8.1681088151  MEMB      27              0.0000000000
      3550        27  POPC      H101          -12.0701323729       19.7861739961        8.1563354968  MEMB      27              0.0000000000
      3551        27  POPC      C211          -11.0604301604       21.3310345450        6.9066506559  MEMB      27              0.0000000000
      3552        27  POPC      H11R          -10.3622345013       20.5441814676        6.5749963412  MEMB      27              0.0000000000
      3553        27  POPC      H11S          -10.4852098112       22.2539223695        7.1469487012  MEMB      27              0.0000000000
      3554        27  POPC      C212          -11.9051244597       21.6906358983        5.6558885464  MEMB      27              0.0000000000
      3555        27  POPC      H12R          -12.2762968266       22.6587536487        6.0476868308  MEMB      27              0.0000000000
      3556        27  POPC      H12S          -12.7000451781       20.9279390198        5.4815215286  MEMB      27              0.0000000000
      3557        27  POPC      C213          -11.2667860461       22.1460485747        4.3069560510  MEMB      27              0.0000000000
      3558        27  POPC      H13R          -10.6168115707       21.3056869228        4.0103690981  MEMB      27              0.0000000000
      3559        27  POPC      H13S          -10.7143639269       23.0735598039        4.5770852971  MEMB      27              0.0000000000
      3560        27  POPC      C214          -12.1127988515       22.5237693055        3.0330734600  MEMB      27              0.0000000000
      3561        27  POPC      H14R          -12.7435576676       23.4341336118        3.1529189184  MEMB      27              0.0000000000
      3562        27  POPC      H14S          -12.8018737303       21.7071532179        2.7268189947  MEMB      27              0.0000000000
      3563        27  POPC      C215          -11.3391398065       23.1744136829        1.9103526305  MEMB      27              0.0000000000
      3564        27  POPC      H15R          -10.6652820271       23.9170831477        2.3991463828  MEMB      27              0.0000000000
      3565        27  POPC      H15S          -12.0445395438       23.7469866669        1.2571892123  MEMB      27              0.0000000000
      3566        27  POPC      C216          -10.6241616634       22.1339443821        1.0657877559  MEMB      27              0.0000000000
      3567        27  POPC      H16R           -9.9080992128       21.6793501620        1.7930409332  MEMB      27              0.0000000000
      3568        27  POPC      H16S          -10.0455923378       22.7265731770        0.3349240067  MEMB      27              0.0000000000
      3569        27  POPC      C217          -11.6513691432       21.1045980669        0.4278176036  MEMB      27              0.0000000000
      3570        27  POPC      H17R          -12.4356886855       21.7787709598        0.0350092196  MEMB      27              0.0000000000
      3571        27  POPC      H17S          -12.0341940620       20.4847217518        1.2665755044  MEMB      27              0.0000000000
      3572        27  POPC      C218          -11.4729002266       20.1260737973       -0.7802756071  MEMB      27              0.0000000000
      3573        27  POPC      H18R          -11.4224623097       20.6573522773       -1.7384025101  MEMB      27              0.0000000000
      3574        27  POPC      H18S          -12.1223282385       19.2459733360       -0.8166561377  MEMB      27              0.0000000000
      3575        27  POPC      H18T          -10.6011568386       19.5231223501       -0.8276417955  MEMB      27              0.0000000000
      3576        27  POPC      C33           -10.8800906598       20.4309893808       14.9593294123  MEMB      27              0.0000000000
      3577        27  POPC      H3X           -10.4343888876       21.3158547120       14.4561011763  MEMB      27              0.0000000000
      3578        27  POPC      H3Y           -11.9593043084       20.5090952737       15.0317543393  MEMB      27              0.0000000000
      3579        27  POPC      C34           -10.6390909877       19.1464471021       14.1589951171  MEMB      27              0.0000000000
      3580        27  POPC      H4X           -11.0984676160       18.2823383498       14.6924470433  MEMB      27              0.0000000000
      3581        27  POPC      H4Y            -9.5470946280       18.9900700449       14.0952179051  MEMB      27              0.0000000000
      3582        27  POPC      C35           -11.1775522417       19.1720039449       12.7168139466  MEMB      27              0.0000000000
      3583        27  POPC      H5X           -10.7102534192       18.3288399231       12.1597094342  MEMB      27              0.0000000000
      3584        27  POPC      H5Y           -10.8831535195       20.1219312515       12.2169791688  MEMB      27              0.0000000000
      3585        27  POPC      C36           -12.7016954341       19.0137076818       12.6381695438  MEMB      27              0.0000000000
      3586        27  POPC      H6X           -13.0959472040       19.5761455226       11.7622074946  MEMB      27              0.0000000000
      3587        27  POPC      H6Y           -13.1551339930       19.4617888091       13.5493812308  MEMB      27              0.0000000000
      3588        27  POPC      C37           -13.1662961745       17.5509249005       12.5352965273  MEMB      27              0.0000000000
      3589        27  POPC      H7X           -14.2133791299       17.5008571117       12.9165125176  MEMB      27              0.0000000000
      3590        27  POPC      H7Y           -12.5371602462       16.9012754857       13.1811526732  MEMB      27              0.0000000000
      3591        27  POPC      C38           -13.1389904985       17.0214539441       11.0940765221  MEMB      27              0.0000000000
      3592        27  POPC      H8X           -13.1636954901       15.9070857319       11.1115634751  MEMB      27              0.0000000000
      3593        27  POPC      H8Y           -12.1767799108       17.3181181548       10.6231525422  MEMB      27              0.0000000000
      3594        27  POPC      C39           -14.3496474758       17.5466168392       10.3001576232  MEMB      27              0.0000000000
      3595        27  POPC      H9X           -14.4635381623       18.6415233923       10.4540356823  MEMB      27              0.0000000000
      3596        27  POPC      H9Y           -15.2532549483       17.0574912924       10.7294784176  MEMB      27              0.0000000000
      3597        27  POPC      C310          -14.2604245193       17.2986899976        8.7892922029  MEMB      27              0.0000000000
      3598        27  POPC      H10X          -13.9963973167       16.2283200012        8.6390068130  MEMB      27              0.0000000000
      3599        27  POPC      H10Y          -13.4546907860       17.9304025028        8.3562544634  MEMB      27              0.0000000000
      3600        27  POPC      C311          -15.5496698982       17.6054989838        8.0140398941  MEMB      27              0.0000000000
      3601        27  POPC      H11X          -15.8419345354       18.6739396153        8.1204248016  MEMB      27              0.0000000000
      3602        27  POPC      H11Y          -16.3671585022       16.9868432275        8.4539428646  MEMB      27              0.0000000000
      3603        27  POPC      C312          -15.4310029607       17.2640647981        6.5179819908  MEMB      27              0.0000000000
      3604        27  POPC      H12X          -16.4513023819       17.3590338188        6.0803299903  MEMB      27              0.0000000000
      3605        27  POPC      H12Y          -15.1160862001       16.2017605774        6.4158828408  MEMB      27              0.0000000000
      3606        27  POPC      C313          -14.4872105348       18.1489396284        5.6787481774  MEMB      27              0.0000000000
      3607        27  POPC      H13X          -13.4623093166       18.2451797322        6.0953267539  MEMB      27              0.0000000000
      3608        27  POPC      H13Y          -14.9186807342       19.1754514402        5.6378301981  MEMB      27              0.0000000000
      3609        27  POPC      C314          -14.3392652648       17.6143611794        4.2480425293  MEMB      27              0.0000000000
      3610        27  POPC      H14X          -15.1518437830       16.8763919372        4.0567377667  MEMB      27              0.0000000000
      3611        27  POPC      H14Y          -13.3781610728       17.0611449746        4.1419391515  MEMB      27              0.0000000000
      3612        27  POPC      C315          -14.3800783682       18.7539891624        3.2252168446  MEMB      27              0.0000000000
      3613        27  POPC      H15X          -13.5237762687       19.4404797831        3.4081865942  MEMB      27              0.0000000000
      3614        27  POPC      H15Y          -15.3189547029       19.3377722879        3.3653953967  MEMB      27              0.0000000000
      3615        27  POPC      C316          -14.3526394849       18.2617990855        1.7896559575  MEMB      27              0.0000000000
      3616        27  POPC      H16X          -14.2891737674       19.0988706807        1.0623088314  MEMB      27              0.0000000000
      3617        27  POPC      H16Y          -15.3049233744       17.7169566559        1.6192817734  MEMB      27              0.0000000000
      3618        27  POPC      H16Z          -13.4973564012       17.5711856930        1.6179434508  MEMB      27              0.0000000000
      3619        28  POPC      N             -14.0172099913      -19.0852701471       17.1320293202  MEMB      28              0.0000000000
      3620        28  POPC      C12           -15.0651318406      -20.0583871851       17.5912319409  MEMB      28              0.0000000000
      3621        28  POPC      H12A          -15.0187535429      -20.8257633438       16.8389970152  MEMB      28              0.0000000000
      3622        28  POPC      H12B          -16.0796721552      -19.6625015987       17.5288090239  MEMB      28              0.0000000000
      3623        28  POPC      C13           -14.3016183674      -17.9332080451       18.0133365053  MEMB      28              0.0000000000
      3624        28  POPC      H13A          -15.3483406945      -17.6892192255       17.9815624473  MEMB      28              0.0000000000
      3625        28  POPC      H13B          -14.0961080699      -18.2781008624       19.0310613727  MEMB      28              0.0000000000
      3626        28  POPC      H13C          -13.7118611040      -17.0601276588       17.7995945278  MEMB      28              0.0000000000
      3627        28  POPC      C14           -12.5677785197      -19.4734140714       17.4423086376  MEMB      28              0.0000000000
      3628        28  POPC      H14A          -12.5082605182      -19.9657041637       18.4018490891  MEMB      28              0.0000000000
      3629        28  POPC      H14B          -12.1612250057      -20.1743168869       16.7045983035  MEMB      28              0.0000000000
      3630        28  POPC      H14C          -11.9096871851      -18.6256461702       17.4590194657  MEMB      28              0.0000000000
      3631        28  POPC      C15           -14.2168609164      -18.9313636198       15.6382142479  MEMB      28              0.0000000000
      3632        28  POPC      H15A          -13.5793246017      -18.1573719803       15.2263707474  MEMB      28              0.0000000000
      3633        28  POPC      H15B          -15.2227357261      -18.6536222769       15.3836621845  MEMB      28              0.0000000000
      3634        28  POPC      H15C          -13.9003056001      -19.8198314392       15.0901862635  MEMB      28              0.0000000000
      3635        28  POPC      C11           -14.8330695450      -20.6764327220       18.9774117126  MEMB      28              0.0000000000
      3636        28  POPC      H11A          -13.7711647725      -20.8847969130       19.1859524435  MEMB      28              0.0000000000
      3637        28  POPC      H11B          -15.3413438036      -21.6722142965       18.9888228150  MEMB      28              0.0000000000
      3638        28  POPC      P             -16.1743252888      -20.3274849669       21.1212981620  MEMB      28              0.0000000000
      3639        28  POPC      O13           -16.7212897845      -19.1295435908       21.7867338383  MEMB      28              0.0000000000
      3640        28  POPC      O14           -15.5402659307      -21.3699341893       21.9450930847  MEMB      28              0.0000000000
      3641        28  POPC      O12           -15.2397516866      -19.7854371667       19.9824402949  MEMB      28              0.0000000000
      3642        28  POPC      O11           -17.3372701530      -20.9698267788       20.2217933091  MEMB      28              0.0000000000
      3643        28  POPC      C1            -18.2268093887      -20.0736794560       19.5192513821  MEMB      28              0.0000000000
      3644        28  POPC      HA            -17.6732358457      -19.3981678372       18.8348775415  MEMB      28              0.0000000000
      3645        28  POPC      HB            -18.8254418422      -19.4917774212       20.2577506262  MEMB      28              0.0000000000
      3646        28  POPC      C2            -19.2376909703      -20.7885479252       18.6013422256  MEMB      28              0.0000000000
      3647        28  POPC      HS            -20.1282334519      -21.1136423847       19.0007546593  MEMB      28              0.0000000000
      3648        28  POPC      O21           -18.6443662574      -21.7377879406       17.7977704756  MEMB      28              0.0000000000
      3649        28  POPC      C21           -18.1367046602      -22.8300999128       18.2384699056  MEMB      28              0.0000000000
      3650        28  POPC      O22           -18.2723675206      -23.4516026787       19.2736860600  MEMB      28              0.0000000000
      3651        28  POPC      C22           -17.4345392795      -23.2619526436       17.0882553895  MEMB      28              0.0000000000
      3652        28  POPC      H2R           -16.9181016038      -22.3030096650       16.8083680233  MEMB      28              0.0000000000
      3653        28  POPC      H2S           -18.0545746077      -23.6026747086       16.2373120144  MEMB      28              0.0000000000
      3654        28  POPC      C3            -20.1373361975      -19.9897801850       17.6858333789  MEMB      28              0.0000000000
      3655        28  POPC      HX            -20.7462976118      -19.4054080914       18.4065303697  MEMB      28              0.0000000000
      3656        28  POPC      HY            -20.8677049522      -20.6508845211       17.1591683824  MEMB      28              0.0000000000
      3657        28  POPC      O31           -19.4032498630      -19.1988801257       16.8205355440  MEMB      28              0.0000000000
      3658        28  POPC      C31           -19.0412538177      -19.8203236017       15.7490669036  MEMB      28              0.0000000000
      3659        28  POPC      O32           -19.4138426506      -20.9126847578       15.3449062244  MEMB      28              0.0000000000
      3660        28  POPC      C32           -18.0835025875      -18.8347050752       15.0809412766  MEMB      28              0.0000000000
      3661        28  POPC      H2X           -17.1141475269      -19.3355567925       15.2172461091  MEMB      28              0.0000000000
      3662        28  POPC      H2Y           -18.1611661372      -17.8799052808       15.6436687731  MEMB      28              0.0000000000
      3663        28  POPC      C23           -16.7485183997      -24.5276715375       17.4462842478  MEMB      28              0.0000000000
      3664        28  POPC      H3R           -17.3733548805      -25.2971665709       17.9003085000  MEMB      28              0.0000000000
      3665        28  POPC      H3S           -16.0767763504      -24.4458561920       18.2769779694  MEMB      28              0.0000000000
      3666        28  POPC      C24           -16.0669355560      -24.7271522490       16.1622033369  MEMB      28              0.0000000000
      3667        28  POPC      H4R           -16.7305336791      -25.1717787888       15.3900799997  MEMB      28              0.0000000000
      3668        28  POPC      H4S           -15.3527209368      -25.4985318756       15.7267773244  MEMB      28              0.0000000000
      3669        28  POPC      C25           -15.2285077688      -23.3545160709       16.2376852149  MEMB      28              0.0000000000
      3670        28  POPC      H5R           -14.5432548290      -24.1820659652       16.5680800773  MEMB      28              0.0000000000
      3671        28  POPC      H5S           -14.9299033030      -23.2610543417       17.2532820259  MEMB      28              0.0000000000
      3672        28  POPC      C26           -14.6104327935      -21.9526577394       14.9902285979  MEMB      28              0.0000000000
      3673        28  POPC      H6R           -15.1264677750      -21.1010173379       14.6273632922  MEMB      28              0.0000000000
      3674        28  POPC      H6S           -15.5813608943      -22.1187779349       15.2866643080  MEMB      28              0.0000000000
      3675        28  POPC      C27           -13.6499636586      -22.0960566449       13.4710671227  MEMB      28              0.0000000000
      3676        28  POPC      H7R           -13.5289371860      -23.0992270517       13.0325030021  MEMB      28              0.0000000000
      3677        28  POPC      H7S           -12.7569607880      -22.7584237748       13.1471126980  MEMB      28              0.0000000000
      3678        28  POPC      C28           -13.9486362204      -21.4426092230       12.0533281352  MEMB      28              0.0000000000
      3679        28  POPC      H8R           -13.1585818764      -21.8997517082       11.5160999491  MEMB      28              0.0000000000
      3680        28  POPC      H8S           -13.3250906440      -20.5845454762       12.4721111640  MEMB      28              0.0000000000
      3681        28  POPC      C29           -15.6764922367      -21.3415948336       11.9834726055  MEMB      28              0.0000000000
      3682        28  POPC      H91           -15.7826061061      -20.3009839084       12.1031355580  MEMB      28              0.0000000000
      3683        28  POPC      C210          -16.7165763446      -22.0756205563       10.9237728087  MEMB      28              0.0000000000
      3684        28  POPC      H101          -17.7823047847      -21.8003955675       11.3835848759  MEMB      28              0.0000000000
      3685        28  POPC      C211          -17.0070097400      -23.7347920706       10.4823475615  MEMB      28              0.0000000000
      3686        28  POPC      H11R          -17.8864271882      -24.1903054193       10.8544294733  MEMB      28              0.0000000000
      3687        28  POPC      H11S          -16.4597321259      -24.6492358451       10.5453110234  MEMB      28              0.0000000000
      3688        28  POPC      C212          -17.0881462262      -24.0980943098        8.8196979550  MEMB      28              0.0000000000
      3689        28  POPC      H12R          -17.7235221994      -23.3088452625        8.4185351009  MEMB      28              0.0000000000
      3690        28  POPC      H12S          -17.4570188183      -25.1528611507        8.6985493272  MEMB      28              0.0000000000
      3691        28  POPC      C213          -15.8583426659      -24.0615099611        7.9271472232  MEMB      28              0.0000000000
      3692        28  POPC      H13R          -15.0759786533      -24.8576307789        8.0689913690  MEMB      28              0.0000000000
      3693        28  POPC      H13S          -15.4291239844      -23.0236453004        7.9894686537  MEMB      28              0.0000000000
      3694        28  POPC      C214          -15.9962448772      -23.9832183102        6.5187284314  MEMB      28              0.0000000000
      3695        28  POPC      H14R          -16.5127314840      -23.0275579899        6.2917446435  MEMB      28              0.0000000000
      3696        28  POPC      H14S          -16.4296983540      -24.9493514870        6.2032362913  MEMB      28              0.0000000000
      3697        28  POPC      C215          -14.6077883280      -23.9189118426        6.0567382709  MEMB      28              0.0000000000
      3698        28  POPC      H15R          -14.1362679142      -24.8701407219        6.4105477318  MEMB      28              0.0000000000
      3699        28  POPC      H15S          -13.9552852897      -23.0762565360        6.4168917743  MEMB      28              0.0000000000
      3700        28  POPC      C216          -14.6826095322      -23.8644290707        4.5844766424  MEMB      28              0.0000000000
      3701        28  POPC      H16R          -15.0523087257      -24.8061437251        4.1426448081  MEMB      28              0.0000000000
      3702        28  POPC      H16S          -13.6311769359      -23.8548540045        4.5665898135  MEMB      28              0.0000000000
      3703        28  POPC      C217          -15.2580244611      -22.5654387206        4.0407893353  MEMB      28              0.0000000000
      3704        28  POPC      H17R          -14.7843557072      -21.6936696924        4.5531939728  MEMB      28              0.0000000000
      3705        28  POPC      H17S          -16.3244589612      -22.6216470334        4.3382604049  MEMB      28              0.0000000000
      3706        28  POPC      C218          -15.2119148475      -22.3506019357        2.5268766792  MEMB      28              0.0000000000
      3707        28  POPC      H18R          -14.9762759383      -23.2875903311        1.9799750214  MEMB      28              0.0000000000
      3708        28  POPC      H18S          -14.4683508159      -21.5741229193        2.2473886251  MEMB      28              0.0000000000
      3709        28  POPC      H18T          -16.2068769132      -21.9878110591        2.1986381093  MEMB      28              0.0000000000
      3710        28  POPC      C33           -18.2195820098      -18.5626007865       13.5757270755  MEMB      28              0.0000000000
      3711        28  POPC      H3X           -19.1888123272      -18.3207430518       13.2125104709  MEMB      28              0.0000000000
      3712        28  POPC      H3Y           -18.0023287038      -19.4916925937       13.0294220988  MEMB      28              0.0000000000
      3713        28  POPC      C34           -17.9074821989      -17.1946902649       12.9829807747  MEMB      28              0.0000000000
      3714        28  POPC      H4X           -16.9306041494      -16.9434189816       13.3996748332  MEMB      28              0.0000000000
      3715        28  POPC      H4Y           -18.5792450642      -16.3805600789       13.3644246036  MEMB      28              0.0000000000
      3716        28  POPC      C35           -18.0367553460      -17.2538365818       11.4210588278  MEMB      28              0.0000000000
      3717        28  POPC      H5X           -18.2563304316      -16.2470462536       11.0517155595  MEMB      28              0.0000000000
      3718        28  POPC      H5Y           -18.9720836260      -17.6335438145       11.0528689438  MEMB      28              0.0000000000
      3719        28  POPC      C36           -16.9491327145      -18.1593233735       10.7239164690  MEMB      28              0.0000000000
      3720        28  POPC      H6X           -16.9702017348      -19.0905250156       11.2908576744  MEMB      28              0.0000000000
      3721        28  POPC      H6Y           -15.9062754171      -17.9192068567       10.9201473091  MEMB      28              0.0000000000
      3722        28  POPC      C37           -16.8741126712      -18.4211199274        9.1776936287  MEMB      28              0.0000000000
      3723        28  POPC      H7X           -17.4962786794      -19.2990813820        8.9706494903  MEMB      28              0.0000000000
      3724        28  POPC      H7Y           -15.7873404369      -18.5344750085        8.9139690380  MEMB      28              0.0000000000
      3725        28  POPC      C38           -17.3343520256      -17.3635952747        8.2013685045  MEMB      28              0.0000000000
      3726        28  POPC      H8X           -17.3420651597      -16.7625458712        9.1051663147  MEMB      28              0.0000000000
      3727        28  POPC      H8Y           -17.9168813578      -16.4580654424        8.1086343231  MEMB      28              0.0000000000
      3728        28  POPC      C39           -16.9148667536      -17.2289586115        6.7570463815  MEMB      28              0.0000000000
      3729        28  POPC      H9X           -17.6710531671      -17.8932970565        6.2625697475  MEMB      28              0.0000000000
      3730        28  POPC      H9Y           -15.8981390606      -17.6173558120        6.6308077534  MEMB      28              0.0000000000
      3731        28  POPC      C310          -17.1329920430      -15.8881297478        6.0108657423  MEMB      28              0.0000000000
      3732        28  POPC      H10X          -16.7020740763      -14.9689381563        6.2235262974  MEMB      28              0.0000000000
      3733        28  POPC      H10Y          -18.1871415578      -15.5575224425        6.0067230806  MEMB      28              0.0000000000
      3734        28  POPC      C311          -16.3280466445      -15.8338140081        4.7186352223  MEMB      28              0.0000000000
      3735        28  POPC      H11X          -15.4241597004      -16.4536263521        4.8194050936  MEMB      28              0.0000000000
      3736        28  POPC      H11Y          -16.1247454148      -14.8797013226        4.1996453079  MEMB      28              0.0000000000
      3737        28  POPC      C312          -17.2014493093      -16.3772480800        3.7753469146  MEMB      28              0.0000000000
      3738        28  POPC      H12X          -17.4971298647      -15.6988319638        2.9574033393  MEMB      28              0.0000000000
      3739        28  POPC      H12Y          -18.1213060342      -16.0207398649        4.2622840726  MEMB      28              0.0000000000
      3740        28  POPC      C313          -16.8365450776      -17.9539811756        3.6814068151  MEMB      28              0.0000000000
      3741        28  POPC      H13X          -16.4629601254      -18.4120766878        4.5708870608  MEMB      28              0.0000000000
      3742        28  POPC      H13Y          -15.9358083428      -17.5354646735        3.1787744851  MEMB      28              0.0000000000
      3743        28  POPC      C314          -17.7824011423      -19.3749296785        3.2194133385  MEMB      28              0.0000000000
      3744        28  POPC      H14X          -17.1251971679      -20.1346675586        2.7612846264  MEMB      28              0.0000000000
      3745        28  POPC      H14Y          -17.3162611277      -18.6727817340        2.7201130268  MEMB      28              0.0000000000
      3746        28  POPC      C315          -19.1970936224      -19.6448682320        2.1845329370  MEMB      28              0.0000000000
      3747        28  POPC      H15X          -19.9654118961      -18.8524478993        2.1741780728  MEMB      28              0.0000000000
      3748        28  POPC      H15Y          -19.2328648387      -20.4540852788        2.8443893076  MEMB      28              0.0000000000
      3749        28  POPC      C316          -20.6434724682      -19.7486233365        1.7327712550  MEMB      28              0.0000000000
      3750        28  POPC      H16X          -20.7387168519      -20.8520737514        1.8601822514  MEMB      28              0.0000000000
      3751        28  POPC      H16Y          -20.7066212544      -19.1901229770        0.7212521138  MEMB      28              0.0000000000
      3752        28  POPC      H16Z          -21.6730995722      -19.3486145755        1.8826926980  MEMB      28              0.0000000000
      3753        29  POPC      N              13.3851149424       21.4945754106       20.4903377215  MEMB      29              0.0000000000
      3754        29  POPC      C12            14.5184168873       20.5149977955       20.5508730178  MEMB      29              0.0000000000
      3755        29  POPC      H12A           14.1436957237       19.6083716838       21.0073909741  MEMB      29              0.0000000000
      3756        29  POPC      H12B           15.2789511906       20.9538976806       21.1926507252  MEMB      29              0.0000000000
      3757        29  POPC      C13            12.6287670395       21.4601931099       21.7569257277  MEMB      29              0.0000000000
      3758        29  POPC      H13A           13.2274186962       21.7206378782       22.6212661716  MEMB      29              0.0000000000
      3759        29  POPC      H13B           11.8764510972       22.2457922724       21.7195293792  MEMB      29              0.0000000000
      3760        29  POPC      H13C           12.1261596291       20.5167937194       21.8825558737  MEMB      29              0.0000000000
      3761        29  POPC      C14            13.9290800550       22.8706480333       20.2054525861  MEMB      29              0.0000000000
      3762        29  POPC      H14A           14.4108335455       22.8631623588       19.2281067840  MEMB      29              0.0000000000
      3763        29  POPC      H14B           13.1577093003       23.6245345718       20.2113132505  MEMB      29              0.0000000000
      3764        29  POPC      H14C           14.7117459090       23.1504913279       20.9128267579  MEMB      29              0.0000000000
      3765        29  POPC      C15            12.4085506475       21.0727512094       19.4294832518  MEMB      29              0.0000000000
      3766        29  POPC      H15A           11.6974177414       20.3360997925       19.8099910457  MEMB      29              0.0000000000
      3767        29  POPC      H15B           12.9436809319       20.5621641279       18.6326394439  MEMB      29              0.0000000000
      3768        29  POPC      H15C           11.8546199862       21.9032897763       19.0173549501  MEMB      29              0.0000000000
      3769        29  POPC      C11            15.1914800720       20.1140585883       19.2204127554  MEMB      29              0.0000000000
      3770        29  POPC      H11A           14.4576980435       19.6841252707       18.5019037133  MEMB      29              0.0000000000
      3771        29  POPC      H11B           15.9199307314       19.3037069222       19.4648897595  MEMB      29              0.0000000000
      3772        29  POPC      P              16.8474320343       20.9049880455       17.4191983804  MEMB      29              0.0000000000
      3773        29  POPC      O13            16.5863363819       19.5515396390       16.9012791945  MEMB      29              0.0000000000
      3774        29  POPC      O14            18.2059555091       21.1496700984       17.9381358243  MEMB      29              0.0000000000
      3775        29  POPC      O12            15.8356961230       21.2277898451       18.6135751919  MEMB      29              0.0000000000
      3776        29  POPC      O11            16.4740616908       22.0494367537       16.3917905374  MEMB      29              0.0000000000
      3777        29  POPC      C1             15.2477444580       22.7843356160       16.4993113778  MEMB      29              0.0000000000
      3778        29  POPC      HA             15.2414606039       23.5769048114       15.7231285926  MEMB      29              0.0000000000
      3779        29  POPC      HB             15.1600810770       23.2885566307       17.4782454848  MEMB      29              0.0000000000
      3780        29  POPC      C2             14.0187017669       21.9611477347       16.0755003479  MEMB      29              0.0000000000
      3781        29  POPC      HS             13.9410275146       21.0769071622       16.7414760182  MEMB      29              0.0000000000
      3782        29  POPC      O21            14.3342251312       21.5951783795       14.7430199463  MEMB      29              0.0000000000
      3783        29  POPC      C21            13.8578716140       20.4836603904       14.3015838897  MEMB      29              0.0000000000
      3784        29  POPC      O22            13.1249200512       19.7119880954       14.8996104227  MEMB      29              0.0000000000
      3785        29  POPC      C22            14.3316947198       20.3536867140       12.8962032010  MEMB      29              0.0000000000
      3786        29  POPC      H2R            15.4297280144       20.1804480401       12.9210031426  MEMB      29              0.0000000000
      3787        29  POPC      H2S            14.1034753959       21.2637810185       12.3011350780  MEMB      29              0.0000000000
      3788        29  POPC      C3             12.6817757366       22.7644806070       16.1048850906  MEMB      29              0.0000000000
      3789        29  POPC      HX             12.4390823408       23.0411975726       17.1484307923  MEMB      29              0.0000000000
      3790        29  POPC      HY             11.8431640787       22.1329990727       15.7319497994  MEMB      29              0.0000000000
      3791        29  POPC      O31            12.7854994981       23.9939726786       15.3846725532  MEMB      29              0.0000000000
      3792        29  POPC      C31            12.4873776029       23.9139003889       14.1063061958  MEMB      29              0.0000000000
      3793        29  POPC      O32            12.0395741366       22.9560005603       13.5053311738  MEMB      29              0.0000000000
      3794        29  POPC      C32            12.8726920453       25.1707081986       13.4644422662  MEMB      29              0.0000000000
      3795        29  POPC      H2X            13.3545477955       25.8935732490       14.1646236583  MEMB      29              0.0000000000
      3796        29  POPC      H2Y            12.0240098758       25.6634991072       12.9378979365  MEMB      29              0.0000000000
      3797        29  POPC      C23            13.6260480242       19.2391462388       12.1843132191  MEMB      29              0.0000000000
      3798        29  POPC      H3R            12.5150750394       19.2505978019       12.2692986080  MEMB      29              0.0000000000
      3799        29  POPC      H3S            13.9858480431       18.2780919460       12.6278748204  MEMB      29              0.0000000000
      3800        29  POPC      C24            14.0312762313       19.4323668960       10.7465885460  MEMB      29              0.0000000000
      3801        29  POPC      H4R            13.7955011023       20.3729639690       10.2426343755  MEMB      29              0.0000000000
      3802        29  POPC      H4S            13.4842282567       18.7365431485       10.1206333255  MEMB      29              0.0000000000
      3803        29  POPC      C25            15.4798634350       19.1725504063       10.5292298879  MEMB      29              0.0000000000
      3804        29  POPC      H5R            15.5294275232       18.2124287226       11.0967212768  MEMB      29              0.0000000000
      3805        29  POPC      H5S            16.3154075353       19.5835267881       11.1388469521  MEMB      29              0.0000000000
      3806        29  POPC      C26            15.6519335541       19.2742617128        8.9474743672  MEMB      29              0.0000000000
      3807        29  POPC      H6R            16.7510780284       19.4411331765        8.9406728613  MEMB      29              0.0000000000
      3808        29  POPC      H6S            15.3161827070       20.0708703308        8.4455559838  MEMB      29              0.0000000000
      3809        29  POPC      C27            14.6937008756       18.5740203239        7.7430573216  MEMB      29              0.0000000000
      3810        29  POPC      H7R            13.6865687268       18.4345947838        8.1152826630  MEMB      29              0.0000000000
      3811        29  POPC      H7S            15.0094671875       17.6107294550        7.8060162787  MEMB      29              0.0000000000
      3812        29  POPC      C28            14.8919897812       17.7930056450        6.3402499904  MEMB      29              0.0000000000
      3813        29  POPC      H8R            14.2955716927       16.8705831662        6.1005624345  MEMB      29              0.0000000000
      3814        29  POPC      H8S            15.7970834435       17.2829585974        6.2239909087  MEMB      29              0.0000000000
      3815        29  POPC      C29            14.8846867502       18.8204631687        5.3403928214  MEMB      29              0.0000000000
      3816        29  POPC      H91            14.2245289040       19.5693041418        5.7215528299  MEMB      29              0.0000000000
      3817        29  POPC      C210           15.7459421376       18.9242673043        4.3283387968  MEMB      29              0.0000000000
      3818        29  POPC      H101           16.0060643432       19.9477977926        4.0160674451  MEMB      29              0.0000000000
      3819        29  POPC      C211           16.7891857592       17.8385136486        4.2846960713  MEMB      29              0.0000000000
      3820        29  POPC      H11R           17.2758044302       18.0455187227        5.2192907525  MEMB      29              0.0000000000
      3821        29  POPC      H11S           17.6721024850       18.0078372628        3.8015503967  MEMB      29              0.0000000000
      3822        29  POPC      C212           17.2011576340       16.6706057339        3.3925084112  MEMB      29              0.0000000000
      3823        29  POPC      H12R           17.2810924120       15.8983171141        4.0470363402  MEMB      29              0.0000000000
      3824        29  POPC      H12S           18.2454049307       16.4213588670        3.0745335313  MEMB      29              0.0000000000
      3825        29  POPC      C213           16.1420734040       16.3733616958        2.4725777532  MEMB      29              0.0000000000
      3826        29  POPC      H13R           15.1718067001       16.6988404478        2.9159348752  MEMB      29              0.0000000000
      3827        29  POPC      H13S           16.1692875641       15.2654548649        2.4085332535  MEMB      29              0.0000000000
      3828        29  POPC      C214           16.5441254242       17.1555477758        1.2642456821  MEMB      29              0.0000000000
      3829        29  POPC      H14R           17.5834563684       16.8646001150        0.9739086245  MEMB      29              0.0000000000
      3830        29  POPC      H14S           16.5481402114       18.2309085065        1.5124621655  MEMB      29              0.0000000000
      3831        29  POPC      C215           15.5811619241       16.8117847787        0.1956913921  MEMB      29              0.0000000000
      3832        29  POPC      H15R           15.7450663277       17.4673261233       -0.6797691953  MEMB      29              0.0000000000
      3833        29  POPC      H15S           14.5452756457       16.9851519527        0.5886122072  MEMB      29              0.0000000000
      3834        29  POPC      C216           15.8711281652       15.3482702213       -0.1202005232  MEMB      29              0.0000000000
      3835        29  POPC      H16R           15.4952900456       14.7061650327        0.7264412335  MEMB      29              0.0000000000
      3836        29  POPC      H16S           16.9328714147       15.1301738154       -0.2635673197  MEMB      29              0.0000000000
      3837        29  POPC      C217           15.1787669869       14.9017115930       -1.3644895008  MEMB      29              0.0000000000
      3838        29  POPC      H17R           14.2976308971       15.0298997813       -0.7353928964  MEMB      29              0.0000000000
      3839        29  POPC      H17S           15.0113142858       13.8321487833       -1.5482987678  MEMB      29              0.0000000000
      3840        29  POPC      C218           15.2735159292       15.6780054682       -2.7354241672  MEMB      29              0.0000000000
      3841        29  POPC      H18R           14.8215243451       16.6878111159       -2.7842686531  MEMB      29              0.0000000000
      3842        29  POPC      H18S           14.6634805510       15.1156061305       -3.4847796263  MEMB      29              0.0000000000
      3843        29  POPC      H18T           16.2821389567       15.8676780900       -3.0994895598  MEMB      29              0.0000000000
      3844        29  POPC      C33            13.7822481985       24.7195902972       12.3594276388  MEMB      29              0.0000000000
      3845        29  POPC      H3X            13.9589185503       25.7991997195       12.1081625393  MEMB      29              0.0000000000
      3846        29  POPC      H3Y            13.2572473600       24.2597708156       11.5022484876  MEMB      29              0.0000000000
      3847        29  POPC      C34            15.0872919039       23.8522259969       12.6496895075  MEMB      29              0.0000000000
      3848        29  POPC      H4X            14.8718439164       22.8803668728       13.0492258156  MEMB      29              0.0000000000
      3849        29  POPC      H4Y            15.3672731111       24.4227185073       13.5463649600  MEMB      29              0.0000000000
      3850        29  POPC      C35            16.2608636323       23.4760291823       11.5978485744  MEMB      29              0.0000000000
      3851        29  POPC      H5X            17.2126125754       23.0260220319       11.8379643528  MEMB      29              0.0000000000
      3852        29  POPC      H5Y            16.9529141441       24.2852937051       11.3583259842  MEMB      29              0.0000000000
      3853        29  POPC      C36            16.0345150001       22.9918752229       10.2577971064  MEMB      29              0.0000000000
      3854        29  POPC      H6X            15.0825639067       23.2318184895        9.7663186265  MEMB      29              0.0000000000
      3855        29  POPC      H6Y            16.1822207482       21.9017013061       10.4574750998  MEMB      29              0.0000000000
      3856        29  POPC      C37            17.0857437202       23.6144636450        9.3569834577  MEMB      29              0.0000000000
      3857        29  POPC      H7X            18.0181586579       23.9031058116        9.8955019893  MEMB      29              0.0000000000
      3858        29  POPC      H7Y            17.0504135099       24.5259283857        8.8203888569  MEMB      29              0.0000000000
      3859        29  POPC      C38            17.2377049851       22.7458638221        8.2693887106  MEMB      29              0.0000000000
      3860        29  POPC      H8X            17.4249024934       21.8202916103        8.8808008359  MEMB      29              0.0000000000
      3861        29  POPC      H8Y            18.0257278592       23.1462189075        7.5995052507  MEMB      29              0.0000000000
      3862        29  POPC      C39            16.2240017931       21.9720974569        7.6426491147  MEMB      29              0.0000000000
      3863        29  POPC      H9X            15.5209703054       21.7422910809        8.4638993674  MEMB      29              0.0000000000
      3864        29  POPC      H9Y            16.6804534239       21.0457880002        7.1827287898  MEMB      29              0.0000000000
      3865        29  POPC      C310           15.5613563294       22.8649971403        6.7513734483  MEMB      29              0.0000000000
      3866        29  POPC      H10X           16.2413264469       23.0275675075        5.8926646179  MEMB      29              0.0000000000
      3867        29  POPC      H10Y           15.4129523706       23.8149102034        7.3192138060  MEMB      29              0.0000000000
      3868        29  POPC      C311           14.2626812260       22.1884134867        6.5094184939  MEMB      29              0.0000000000
      3869        29  POPC      H11X           13.8049951713       21.8805101375        7.4841599174  MEMB      29              0.0000000000
      3870        29  POPC      H11Y           14.4801549006       21.2900342261        5.9323846327  MEMB      29              0.0000000000
      3871        29  POPC      C312           13.3834945843       23.1248296725        5.7508698604  MEMB      29              0.0000000000
      3872        29  POPC      H12X           14.0106437842       23.9677741278        5.3824597674  MEMB      29              0.0000000000
      3873        29  POPC      H12Y           12.6784207346       23.5219168999        6.5118431584  MEMB      29              0.0000000000
      3874        29  POPC      C313           12.6611699182       22.4369633688        4.5939531032  MEMB      29              0.0000000000
      3875        29  POPC      H13X           11.7653171477       23.0555740323        4.3886066315  MEMB      29              0.0000000000
      3876        29  POPC      H13Y           12.3003719446       21.4404373653        4.9418683614  MEMB      29              0.0000000000
      3877        29  POPC      C314           13.5054247992       22.2173725944        3.3100099844  MEMB      29              0.0000000000
      3878        29  POPC      H14X           12.8997718263       21.6160201531        2.5929736605  MEMB      29              0.0000000000
      3879        29  POPC      H14Y           14.4062184677       21.6228823562        3.5714216347  MEMB      29              0.0000000000
      3880        29  POPC      C315           14.0907311785       23.4615683334        2.6137415834  MEMB      29              0.0000000000
      3881        29  POPC      H15X           14.7012792415       23.1606269710        1.7347689949  MEMB      29              0.0000000000
      3882        29  POPC      H15Y           14.6957909153       24.0404113256        3.3375742481  MEMB      29              0.0000000000
      3883        29  POPC      C316           13.0949837960       24.4079543586        2.0651841239  MEMB      29              0.0000000000
      3884        29  POPC      H16X           13.4846155602       25.3948996098        1.7452624263  MEMB      29              0.0000000000
      3885        29  POPC      H16Y           12.3390383146       24.5870276581        2.8671196829  MEMB      29              0.0000000000
      3886        29  POPC      H16Z           12.6231506655       23.9303396628        1.1696136296  MEMB      29              0.0000000000
      3887        30  POPC      N             -21.3708238341      -14.1840220423       20.6948035105  MEMB      30              0.0000000000
      3888        30  POPC      C12           -22.3347334976      -13.8594582580       19.5543814469  MEMB      30              0.0000000000
      3889        30  POPC      H12A          -22.6498568793      -12.8360043149       19.6814217603  MEMB      30              0.0000000000
      3890        30  POPC      H12B          -23.2104614718      -14.4777983488       19.6458911801  MEMB      30              0.0000000000
      3891        30  POPC      C13           -20.1276727950      -13.3916545748       20.5040615676  MEMB      30              0.0000000000
      3892        30  POPC      H13A          -19.6730484833      -13.6065770839       19.5343233523  MEMB      30              0.0000000000
      3893        30  POPC      H13B          -20.3147463433      -12.3268405875       20.5156714179  MEMB      30              0.0000000000
      3894        30  POPC      H13C          -19.3720315312      -13.6068823731       21.2492544646  MEMB      30              0.0000000000
      3895        30  POPC      C14           -22.0073891046      -13.7942098376       21.9862325593  MEMB      30              0.0000000000
      3896        30  POPC      H14A          -22.9588491621      -14.2938520218       22.1387612346  MEMB      30              0.0000000000
      3897        30  POPC      H14B          -21.3861365109      -14.0093824059       22.8441874165  MEMB      30              0.0000000000
      3898        30  POPC      H14C          -22.2164680460      -12.7234755553       22.0005921966  MEMB      30              0.0000000000
      3899        30  POPC      C15           -20.9744722813      -15.6251614990       20.7893264979  MEMB      30              0.0000000000
      3900        30  POPC      H15A          -21.7898124215      -16.2799333624       21.0425438241  MEMB      30              0.0000000000
      3901        30  POPC      H15B          -20.1586727987      -15.7513249908       21.5008822991  MEMB      30              0.0000000000
      3902        30  POPC      H15C          -20.5842369315      -15.9651164159       19.8214588280  MEMB      30              0.0000000000
      3903        30  POPC      C11           -21.9559706850      -13.9290237687       18.0534283287  MEMB      30              0.0000000000
      3904        30  POPC      H11A          -21.3689845516      -13.0303652191       17.7811079380  MEMB      30              0.0000000000
      3905        30  POPC      H11B          -22.9090752150      -13.8947881961       17.4675659192  MEMB      30              0.0000000000
      3906        30  POPC      P             -21.8943038261      -16.4668516508       17.6071889743  MEMB      30              0.0000000000
      3907        30  POPC      O13           -23.2434141402      -16.3941465182       18.2257332154  MEMB      30              0.0000000000
      3908        30  POPC      O14           -20.8890751788      -17.3059365767       18.2415821545  MEMB      30              0.0000000000
      3909        30  POPC      O12           -21.2061548491      -15.0707109156       17.7151328234  MEMB      30              0.0000000000
      3910        30  POPC      O11           -21.9967492457      -16.7329247119       16.0769823805  MEMB      30              0.0000000000
      3911        30  POPC      C1            -20.9185818194      -16.3438319491       15.2317650211  MEMB      30              0.0000000000
      3912        30  POPC      HA            -19.9354037150      -16.7003933842       15.6208746795  MEMB      30              0.0000000000
      3913        30  POPC      HB            -20.8422853295      -15.2316316670       15.1362893953  MEMB      30              0.0000000000
      3914        30  POPC      C2            -21.2494976780      -16.9638795855       13.8686586830  MEMB      30              0.0000000000
      3915        30  POPC      HS            -20.4970696671      -16.5809533964       13.1427210779  MEMB      30              0.0000000000
      3916        30  POPC      O21           -22.5050415984      -16.6139026775       13.4132621348  MEMB      30              0.0000000000
      3917        30  POPC      C21           -22.7026872183      -15.4818076152       12.9208103417  MEMB      30              0.0000000000
      3918        30  POPC      O22           -21.9104842543      -14.5856959221       12.6727570617  MEMB      30              0.0000000000
      3919        30  POPC      C22           -24.1763746505      -15.4881245377       12.7015708713  MEMB      30              0.0000000000
      3920        30  POPC      H2R           -24.5283184087      -14.6954909593       13.3757792923  MEMB      30              0.0000000000
      3921        30  POPC      H2S           -24.6075844030      -16.4452628909       13.0725771611  MEMB      30              0.0000000000
      3922        30  POPC      C3            -21.3303868685      -18.4946394880       13.8408275576  MEMB      30              0.0000000000
      3923        30  POPC      HX            -22.0273242890      -18.9409172526       14.5706156824  MEMB      30              0.0000000000
      3924        30  POPC      HY            -20.4645730394      -18.8779352482       14.2970454611  MEMB      30              0.0000000000
      3925        30  POPC      O31           -21.5778937161      -18.9564006890       12.4956231562  MEMB      30              0.0000000000
      3926        30  POPC      C31           -20.7026814575      -19.1220467729       11.5133181094  MEMB      30              0.0000000000
      3927        30  POPC      O32           -19.6588920857      -19.7335083141       11.5124793956  MEMB      30              0.0000000000
      3928        30  POPC      C32           -21.3123672861      -18.5435127927       10.2619302460  MEMB      30              0.0000000000
      3929        30  POPC      H2X           -21.8461942638      -17.6060955642       10.4096238761  MEMB      30              0.0000000000
      3930        30  POPC      H2Y           -22.0081763266      -19.3813970438       10.0454664788  MEMB      30              0.0000000000
      3931        30  POPC      C23           -24.5550126928      -15.1368019475       11.2575149821  MEMB      30              0.0000000000
      3932        30  POPC      H3R           -23.9432621590      -14.2829261424       10.9202149022  MEMB      30              0.0000000000
      3933        30  POPC      H3S           -25.6022024624      -14.7581850483       11.3392766681  MEMB      30              0.0000000000
      3934        30  POPC      C24           -24.4436769160      -16.2786715808       10.2137779372  MEMB      30              0.0000000000
      3935        30  POPC      H4R           -24.8305491944      -17.2424202648       10.5589793266  MEMB      30              0.0000000000
      3936        30  POPC      H4S           -23.4159336807      -16.6033654754       10.0941253952  MEMB      30              0.0000000000
      3937        30  POPC      C25           -25.1851383259      -15.9668207842        8.8914797387  MEMB      30              0.0000000000
      3938        30  POPC      H5R           -24.7228637055      -15.0871241851        8.4197711896  MEMB      30              0.0000000000
      3939        30  POPC      H5S           -26.2596294670      -15.7406971466        9.0979929081  MEMB      30              0.0000000000
      3940        30  POPC      C26           -25.1023307590      -17.1186074461        7.8929408911  MEMB      30              0.0000000000
      3941        30  POPC      H6R           -25.4651015327      -18.1010727971        8.1289589132  MEMB      30              0.0000000000
      3942        30  POPC      H6S           -24.0660833671      -17.4833703461        7.8812745524  MEMB      30              0.0000000000
      3943        30  POPC      C27           -25.9650756386      -17.0578570054        6.6334964045  MEMB      30              0.0000000000
      3944        30  POPC      H7R           -25.9528305148      -16.0219550892        6.2779457857  MEMB      30              0.0000000000
      3945        30  POPC      H7S           -27.0328680478      -17.3897590065        6.7519703668  MEMB      30              0.0000000000
      3946        30  POPC      C28           -25.1774808916      -17.9893101474        5.7502340503  MEMB      30              0.0000000000
      3947        30  POPC      H8R           -24.1649297775      -17.5766270865        5.8616762694  MEMB      30              0.0000000000
      3948        30  POPC      H8S           -25.1158242673      -18.0086064699        4.6942851358  MEMB      30              0.0000000000
      3949        30  POPC      C29           -25.4839983374      -19.4126743659        5.9870149101  MEMB      30              0.0000000000
      3950        30  POPC      H91           -26.1507943246      -19.9435293770        5.3652057928  MEMB      30              0.0000000000
      3951        30  POPC      C210          -24.7936744636      -20.3329640196        6.5246751760  MEMB      30              0.0000000000
      3952        30  POPC      H101          -24.9291266204      -21.4339660744        6.4708181706  MEMB      30              0.0000000000
      3953        30  POPC      C211          -23.6796146240      -19.7472861279        6.9724082684  MEMB      30              0.0000000000
      3954        30  POPC      H11R          -23.5964661881      -19.7438995281        7.9939665047  MEMB      30              0.0000000000
      3955        30  POPC      H11S          -23.1853009246      -18.8113723410        6.6236225570  MEMB      30              0.0000000000
      3956        30  POPC      C212          -22.7936146200      -20.2948364851        6.0982245505  MEMB      30              0.0000000000
      3957        30  POPC      H12R          -22.6081411744      -21.2654062143        5.5302135206  MEMB      30              0.0000000000
      3958        30  POPC      H12S          -23.0316445152      -21.3213584868        5.5485782105  MEMB      30              0.0000000000
      3959        30  POPC      C213          -21.2814120462      -18.8269053234        5.9607456986  MEMB      30              0.0000000000
      3960        30  POPC      H13R          -20.1900389785      -18.9129087591        6.2615908702  MEMB      30              0.0000000000
      3961        30  POPC      H13S          -21.5676517819      -17.7630162988        6.0156369686  MEMB      30              0.0000000000
      3962        30  POPC      C214          -20.0952205357      -18.6606517295        4.5960767585  MEMB      30              0.0000000000
      3963        30  POPC      H14R          -20.7149971366      -18.4723288104        3.7967958532  MEMB      30              0.0000000000
      3964        30  POPC      H14S          -19.8566250652      -19.7278197835        4.3566999251  MEMB      30              0.0000000000
      3965        30  POPC      C215          -19.4818732832      -17.4427265375        3.4866782379  MEMB      30              0.0000000000
      3966        30  POPC      H15R          -18.8592393868      -17.7080412135        4.3385871800  MEMB      30              0.0000000000
      3967        30  POPC      H15S          -19.9653126009      -16.5885950840        3.8622039334  MEMB      30              0.0000000000
      3968        30  POPC      C216          -18.5781382811      -17.3960478569        1.6451489724  MEMB      30              0.0000000000
      3969        30  POPC      H16R          -18.0668678758      -16.6014800001        1.5817969352  MEMB      30              0.0000000000
      3970        30  POPC      H16S          -19.2255793496      -17.6531848791        0.7750294543  MEMB      30              0.0000000000
      3971        30  POPC      C217          -17.1853365508      -18.2846654066        0.7047780669  MEMB      30              0.0000000000
      3972        30  POPC      H17R          -17.4310207854      -18.6517648198       -0.3160147998  MEMB      30              0.0000000000
      3973        30  POPC      H17S          -16.9702157765      -19.3181435498        0.9491584252  MEMB      30              0.0000000000
      3974        30  POPC      C218          -15.6173512987      -18.2699769279        1.0445555173  MEMB      30              0.0000000000
      3975        30  POPC      H18R          -15.3684556767      -17.2163231892        1.1818224009  MEMB      30              0.0000000000
      3976        30  POPC      H18S          -14.8367398024      -18.9215043855        0.5924791461  MEMB      30              0.0000000000
      3977        30  POPC      H18T          -15.4235917721      -18.8024310017        2.0171875540  MEMB      30              0.0000000000
      3978        30  POPC      C33           -20.4284911713      -18.3609108593        9.0367156319  MEMB      30              0.0000000000
      3979        30  POPC      H3X           -21.2041316297      -18.2505261326        8.2595124344  MEMB      30              0.0000000000
      3980        30  POPC      H3Y           -19.6707818494      -19.1670353378        8.8351770573  MEMB      30              0.0000000000
      3981        30  POPC      C34           -19.9678514042      -17.0809671092        8.4841876185  MEMB      30              0.0000000000
      3982        30  POPC      H4X           -19.5353738573      -17.3258492733        7.4632963849  MEMB      30              0.0000000000
      3983        30  POPC      H4Y           -19.2810922340      -16.8443151825        9.2995067626  MEMB      30              0.0000000000
      3984        30  POPC      C35           -20.6918865538      -15.7984704215        8.4075791345  MEMB      30              0.0000000000
      3985        30  POPC      H5X           -21.1077570803      -15.6760249732        9.4291475054  MEMB      30              0.0000000000
      3986        30  POPC      H5Y           -21.4354880152      -15.9023374629        7.5924852932  MEMB      30              0.0000000000
      3987        30  POPC      C36           -19.7691811427      -14.5932343756        8.1652545976  MEMB      30              0.0000000000
      3988        30  POPC      H6X           -19.2330017358      -14.6200928895        7.2048819855  MEMB      30              0.0000000000
      3989        30  POPC      H6Y           -19.0208005862      -14.4547053099        8.9725538022  MEMB      30              0.0000000000
      3990        30  POPC      C37           -20.6100789987      -13.3541052998        8.0810054484  MEMB      30              0.0000000000
      3991        30  POPC      H7X           -20.1251835329      -12.4976196586        8.5947439310  MEMB      30              0.0000000000
      3992        30  POPC      H7Y           -21.5510000506      -13.5995867224        8.6196865979  MEMB      30              0.0000000000
      3993        30  POPC      C38           -20.8251854672      -12.9879026302        6.6246943693  MEMB      30              0.0000000000
      3994        30  POPC      H8X           -21.0408909367      -13.8644027940        5.9694239702  MEMB      30              0.0000000000
      3995        30  POPC      H8Y           -19.9140202130      -12.4927476717        6.2113120119  MEMB      30              0.0000000000
      3996        30  POPC      C39           -21.9552307280      -12.0121530738        6.5047457851  MEMB      30              0.0000000000
      3997        30  POPC      H9X           -21.9432632861      -11.7897147023        5.4214637213  MEMB      30              0.0000000000
      3998        30  POPC      H9Y           -21.6999842469      -11.0576305062        7.0229144454  MEMB      30              0.0000000000
      3999        30  POPC      C310          -23.3334675241      -12.5269317619        6.9902696000  MEMB      30              0.0000000000
      4000        30  POPC      H10X          -24.0237420731      -11.6791112782        6.9679006512  MEMB      30              0.0000000000
      4001        30  POPC      H10Y          -23.3333360191      -12.7339414271        8.0735404006  MEMB      30              0.0000000000
      4002        30  POPC      C311          -23.9653020140      -13.7290486294        6.2271281437  MEMB      30              0.0000000000
      4003        30  POPC      H11X          -25.0550466552      -13.7870811208        6.4493549406  MEMB      30              0.0000000000
      4004        30  POPC      H11Y          -23.4139611547      -14.6306239191        6.5518174523  MEMB      30              0.0000000000
      4005        30  POPC      C312          -23.8551895035      -13.7781324630        4.7143144439  MEMB      30              0.0000000000
      4006        30  POPC      H12X          -22.7982335812      -13.6232877606        4.4484076947  MEMB      30              0.0000000000
      4007        30  POPC      H12Y          -24.5741994517      -13.0576871071        4.2465521143  MEMB      30              0.0000000000
      4008        30  POPC      C313          -24.3382462817      -14.9636280655        3.9278908480  MEMB      30              0.0000000000
      4009        30  POPC      H13X          -24.6413830408      -14.5284644460        2.9605275695  MEMB      30              0.0000000000
      4010        30  POPC      H13Y          -25.2091233093      -15.4056824078        4.4398807521  MEMB      30              0.0000000000
      4011        30  POPC      C314          -23.3311076935      -15.8780681065        3.2732763741  MEMB      30              0.0000000000
      4012        30  POPC      H14X          -23.9328655612      -16.7771371553        3.0347747132  MEMB      30              0.0000000000
      4013        30  POPC      H14Y          -22.5205324875      -16.0885736893        3.9929871871  MEMB      30              0.0000000000
      4014        30  POPC      C315          -22.7482278615      -15.3980735567        1.9271326863  MEMB      30              0.0000000000
      4015        30  POPC      H15X          -22.6887657087      -14.3116827739        1.8563017914  MEMB      30              0.0000000000
      4016        30  POPC      H15Y          -23.3105379239      -15.7029819076        1.0531781081  MEMB      30              0.0000000000
      4017        30  POPC      C316          -21.4672165282      -16.1045144416        1.6474018843  MEMB      30              0.0000000000
      4018        30  POPC      H16X          -20.8348520045      -15.9067404992        2.4947573277  MEMB      30              0.0000000000
      4019        30  POPC      H16Y          -20.8329360844      -15.7937614608        0.8385484630  MEMB      30              0.0000000000
      4020        30  POPC      H16Z          -21.6658901800      -17.1528520037        1.3764407843  MEMB      30              0.0000000000
      4021        31  POPC      N              21.0000391333       15.2235480801       20.2639367397  MEMB      31              0.0000000000
      4022        31  POPC      C12            21.9181492670       14.7525508477       19.1831317564  MEMB      31              0.0000000000
      4023        31  POPC      H12A           21.5145912737       14.9741276716       18.1893117699  MEMB      31              0.0000000000
      4024        31  POPC      H12B           21.7349469333       13.7214797257       19.2467237134  MEMB      31              0.0000000000
      4025        31  POPC      C13            20.5487189989       16.5784825462       19.8903518775  MEMB      31              0.0000000000
      4026        31  POPC      H13A           19.9410643666       16.5569261496       18.9914892134  MEMB      31              0.0000000000
      4027        31  POPC      H13B           20.0246286748       17.0584663668       20.7020232459  MEMB      31              0.0000000000
      4028        31  POPC      H13C           21.4403473195       17.1688108443       19.6475527929  MEMB      31              0.0000000000
      4029        31  POPC      C14            19.9007456744       14.2610063386       20.3248157360  MEMB      31              0.0000000000
      4030        31  POPC      H14A           19.1187412794       14.6313028390       20.9723751918  MEMB      31              0.0000000000
      4031        31  POPC      H14B           19.4931968024       14.0284686706       19.3468265678  MEMB      31              0.0000000000
      4032        31  POPC      H14C           20.2248853340       13.3114425877       20.7691015907  MEMB      31              0.0000000000
      4033        31  POPC      C15            21.5784177169       15.2131905450       21.6119465283  MEMB      31              0.0000000000
      4034        31  POPC      H15A           22.5548938568       15.6859335237       21.6035519222  MEMB      31              0.0000000000
      4035        31  POPC      H15B           21.6193198417       14.2410414097       22.0577346776  MEMB      31              0.0000000000
      4036        31  POPC      H15C           20.9329827527       15.8108300390       22.2485189369  MEMB      31              0.0000000000
      4037        31  POPC      C11            23.4285523265       14.9983333894       19.1897686325  MEMB      31              0.0000000000
      4038        31  POPC      H11A           23.9173086646       14.5329665388       18.3027600545  MEMB      31              0.0000000000
      4039        31  POPC      H11B           23.9402446840       14.5696278454       20.0711245254  MEMB      31              0.0000000000
      4040        31  POPC      P              23.7767492635       17.1502325837       17.8383003401  MEMB      31              0.0000000000
      4041        31  POPC      O13            24.7225057758       16.4503863934       16.9265226242  MEMB      31              0.0000000000
      4042        31  POPC      O14            24.0515196856       18.5451287011       18.2590325026  MEMB      31              0.0000000000
      4043        31  POPC      O12            23.6395994705       16.3683893460       19.1969929022  MEMB      31              0.0000000000
      4044        31  POPC      O11            22.2958583756       16.9596648586       17.2195351791  MEMB      31              0.0000000000
      4045        31  POPC      C1             22.1291238691       17.3847467259       15.8367509750  MEMB      31              0.0000000000
      4046        31  POPC      HA             22.8184023779       16.8889549954       15.1090325261  MEMB      31              0.0000000000
      4047        31  POPC      HB             22.2557482526       18.4400861578       15.7930450748  MEMB      31              0.0000000000
      4048        31  POPC      C2             20.7204412889       17.3105744983       15.2613226888  MEMB      31              0.0000000000
      4049        31  POPC      HS             20.0165710176       17.9370618812       15.8691245253  MEMB      31              0.0000000000
      4050        31  POPC      O21            20.4464878054       16.0064634426       15.3983288332  MEMB      31              0.0000000000
      4051        31  POPC      C21            19.2444520708       15.7848380323       15.2471783483  MEMB      31              0.0000000000
      4052        31  POPC      O22            18.2514840364       16.4665682860       15.4382131204  MEMB      31              0.0000000000
      4053        31  POPC      C22            19.3187771946       14.4309264133       14.8969785643  MEMB      31              0.0000000000
      4054        31  POPC      H2R            18.3371638734       14.0962418608       15.2918740273  MEMB      31              0.0000000000
      4055        31  POPC      H2S            20.1419750067       13.9232525982       15.4392390422  MEMB      31              0.0000000000
      4056        31  POPC      C3             20.5844806992       17.6843503767       13.7617710084  MEMB      31              0.0000000000
      4057        31  POPC      HX             20.7265298314       18.6971932532       13.9601667540  MEMB      31              0.0000000000
      4058        31  POPC      HY             19.5654552865       17.5694082781       13.3073834799  MEMB      31              0.0000000000
      4059        31  POPC      O31            21.6559272316       17.2914784231       12.9030979109  MEMB      31              0.0000000000
      4060        31  POPC      C31            22.3135176879       18.1039197355       12.1261794228  MEMB      31              0.0000000000
      4061        31  POPC      O32            22.0738459190       19.2735168062       11.9176460452  MEMB      31              0.0000000000
      4062        31  POPC      C32            23.5654162775       17.3849473647       11.6163957582  MEMB      31              0.0000000000
      4063        31  POPC      H2X            23.4185684757       16.2965922959       11.5705674907  MEMB      31              0.0000000000
      4064        31  POPC      H2Y            24.3470017006       17.6273599669       12.3753612051  MEMB      31              0.0000000000
      4065        31  POPC      C23            19.5489740756       14.1443531171       13.4145456815  MEMB      31              0.0000000000
      4066        31  POPC      H3R            18.9411569292       14.5264269731       12.6957792746  MEMB      31              0.0000000000
      4067        31  POPC      H3S            19.0306461336       13.2477786679       13.1062976141  MEMB      31              0.0000000000
      4068        31  POPC      C24            20.7690682557       14.4470044890       12.6414745119  MEMB      31              0.0000000000
      4069        31  POPC      H4R            21.5592456889       13.7083669925       12.8674366280  MEMB      31              0.0000000000
      4070        31  POPC      H4S            21.2394090772       15.3568855215       12.8285633671  MEMB      31              0.0000000000
      4071        31  POPC      C25            20.2880543062       14.3813015476       11.2084347860  MEMB      31              0.0000000000
      4072        31  POPC      H5R            19.4709426373       13.5877969718       11.0739228308  MEMB      31              0.0000000000
      4073        31  POPC      H5S            21.2096107124       14.3230619559       10.6155391570  MEMB      31              0.0000000000
      4074        31  POPC      C26            19.6973699223       15.4137906127       10.4136074532  MEMB      31              0.0000000000
      4075        31  POPC      H6R            20.1731230766       16.3740892912       10.6195979155  MEMB      31              0.0000000000
      4076        31  POPC      H6S            18.6458998473       15.3652609012       10.7669246843  MEMB      31              0.0000000000
      4077        31  POPC      C27            20.0105882057       14.8889426391        8.9873280191  MEMB      31              0.0000000000
      4078        31  POPC      H7R            19.3459617643       13.9959376361        8.7725018858  MEMB      31              0.0000000000
      4079        31  POPC      H7S            21.0585914002       14.6773646228        8.7129955740  MEMB      31              0.0000000000
      4080        31  POPC      C28            19.9624428569       15.9353524419        7.9317792594  MEMB      31              0.0000000000
      4081        31  POPC      H8R            19.0984446306       15.9317765017        8.4497437433  MEMB      31              0.0000000000
      4082        31  POPC      H8S            19.7501011109       15.5482665374        6.9345794064  MEMB      31              0.0000000000
      4083        31  POPC      C29            20.0095767343       17.3809701711        8.0858265362  MEMB      31              0.0000000000
      4084        31  POPC      H91            19.7543932734       17.7815492565        9.0928914880  MEMB      31              0.0000000000
      4085        31  POPC      C210           19.9151924509       18.1842981152        7.0506581498  MEMB      31              0.0000000000
      4086        31  POPC      H101           20.1340976874       19.2027313536        7.3383859697  MEMB      31              0.0000000000
      4087        31  POPC      C211           19.7517661395       17.9211914247        5.5490741674  MEMB      31              0.0000000000
      4088        31  POPC      H11R           19.0684806127       17.1441308804        5.2616194203  MEMB      31              0.0000000000
      4089        31  POPC      H11S           20.7042379444       17.5913796172        5.0866777710  MEMB      31              0.0000000000
      4090        31  POPC      C212           19.1858407815       19.2409208934        4.9500575412  MEMB      31              0.0000000000
      4091        31  POPC      H12R           20.2048949098       19.5130800396        5.0578457275  MEMB      31              0.0000000000
      4092        31  POPC      H12S           18.4203589059       19.7545873652        5.5776138957  MEMB      31              0.0000000000
      4093        31  POPC      C213           18.8895078452       19.7037294192        3.5276541086  MEMB      31              0.0000000000
      4094        31  POPC      H13R           18.9030320957       20.7978087334        3.4081379084  MEMB      31              0.0000000000
      4095        31  POPC      H13S           17.8368474647       19.6653880288        3.1895576724  MEMB      31              0.0000000000
      4096        31  POPC      C214           19.5319094294       18.7035231760        2.6124439700  MEMB      31              0.0000000000
      4097        31  POPC      H14R           18.8284934943       18.6154195504        1.7730662166  MEMB      31              0.0000000000
      4098        31  POPC      H14S           19.6616996643       17.6439752621        2.8760550256  MEMB      31              0.0000000000
      4099        31  POPC      C215           20.8804999626       19.1995260477        2.4407981458  MEMB      31              0.0000000000
      4100        31  POPC      H15R           21.5592380578       18.8712937280        3.2503344166  MEMB      31              0.0000000000
      4101        31  POPC      H15S           20.8239572722       20.3189998862        2.5302255070  MEMB      31              0.0000000000
      4102        31  POPC      C216           21.3348736404       18.8554578867        1.0873733074  MEMB      31              0.0000000000
      4103        31  POPC      H16R           20.5489675028       18.7888990787        0.3705398505  MEMB      31              0.0000000000
      4104        31  POPC      H16S           21.6662918528       17.8166229954        0.9514232688  MEMB      31              0.0000000000
      4105        31  POPC      C217           22.2414600436       20.0160763575        0.8478152027  MEMB      31              0.0000000000
      4106        31  POPC      H17R           23.1541404762       19.7080261980        1.1832076767  MEMB      31              0.0000000000
      4107        31  POPC      H17S           22.0589364213       21.0744871745        1.0739985662  MEMB      31              0.0000000000
      4108        31  POPC      C218           22.8439602542       20.3010089932       -0.2866661459  MEMB      31              0.0000000000
      4109        31  POPC      H18R           23.8028497440       20.6330783001       -0.6166112035  MEMB      31              0.0000000000
      4110        31  POPC      H18S           22.4322416340       21.1951831318       -0.7923339999  MEMB      31              0.0000000000
      4111        31  POPC      H18T           22.7631397360       19.2115487525       -0.6023140049  MEMB      31              0.0000000000
      4112        31  POPC      C33            24.0269063960       17.9555147747       10.2668423544  MEMB      31              0.0000000000
      4113        31  POPC      H3X            25.0845180041       17.7252085404       10.0298812860  MEMB      31              0.0000000000
      4114        31  POPC      H3Y            23.9344758886       19.0100106504       10.4428751879  MEMB      31              0.0000000000
      4115        31  POPC      C34            23.1070703902       17.7846356228        9.0611684437  MEMB      31              0.0000000000
      4116        31  POPC      H4X            22.0681951141       17.8798275895        9.4446913771  MEMB      31              0.0000000000
      4117        31  POPC      H4Y            23.2619889529       16.7762047441        8.6368911444  MEMB      31              0.0000000000
      4118        31  POPC      C35            23.2433218860       18.9004108775        7.9951027038  MEMB      31              0.0000000000
      4119        31  POPC      H5X            22.7822433048       19.8163114267        8.4188350832  MEMB      31              0.0000000000
      4120        31  POPC      H5Y            22.6488405468       18.6373799434        7.0931480130  MEMB      31              0.0000000000
      4121        31  POPC      C36            24.6755278183       19.2594419850        7.5774336368  MEMB      31              0.0000000000
      4122        31  POPC      H6X            25.2781039917       19.5216997155        8.4685655462  MEMB      31              0.0000000000
      4123        31  POPC      H6Y            24.6473689929       20.1656539070        6.9235503476  MEMB      31              0.0000000000
      4124        31  POPC      C37            25.3540769381       18.1088223822        6.8617513829  MEMB      31              0.0000000000
      4125        31  POPC      H7X            25.1121093198       17.1264266713        7.3132342864  MEMB      31              0.0000000000
      4126        31  POPC      H7Y            26.4557390414       18.2563465889        6.7472521959  MEMB      31              0.0000000000
      4127        31  POPC      C38            24.8521071998       17.9780053072        5.4800101595  MEMB      31              0.0000000000
      4128        31  POPC      H8X            25.1185632886       18.9683277656        5.0449542534  MEMB      31              0.0000000000
      4129        31  POPC      H8Y            23.7461231596       17.8710399511        5.3949752313  MEMB      31              0.0000000000
      4130        31  POPC      C39            25.5649023818       16.8048915800        4.8082776262  MEMB      31              0.0000000000
      4131        31  POPC      H9X            25.8409508078       16.0126757180        5.5186278774  MEMB      31              0.0000000000
      4132        31  POPC      H9Y            26.5199437949       17.1481454256        4.3477499002  MEMB      31              0.0000000000
      4133        31  POPC      C310           24.7255728695       16.0552707636        3.8042175601  MEMB      31              0.0000000000
      4134        31  POPC      H10X           23.9837558758       16.5493303095        3.1636402830  MEMB      31              0.0000000000
      4135        31  POPC      H10Y           23.9041574645       15.6151744052        4.3596595257  MEMB      31              0.0000000000
      4136        31  POPC      C311           25.6725649582       15.3611750209        2.8495117525  MEMB      31              0.0000000000
      4137        31  POPC      H11X           26.2647260580       14.5660278714        3.3240222626  MEMB      31              0.0000000000
      4138        31  POPC      H11Y           26.3583295268       16.0571445117        2.2746629107  MEMB      31              0.0000000000
      4139        31  POPC      C312           24.8469391817       14.6712628640        1.8588634030  MEMB      31              0.0000000000
      4140        31  POPC      H12X           25.5853199406       14.1242040008        1.2325058044  MEMB      31              0.0000000000
      4141        31  POPC      H12Y           24.8086320164       15.3971165997        1.0564636276  MEMB      31              0.0000000000
      4142        31  POPC      C313           23.5410787722       13.9148157046        2.5452428219  MEMB      31              0.0000000000
      4143        31  POPC      H13X           23.0149885700       14.4889181696        3.2821335287  MEMB      31              0.0000000000
      4144        31  POPC      H13Y           24.1256083024       13.0485763831        2.8961161967  MEMB      31              0.0000000000
      4145        31  POPC      C314           22.2557333866       12.9292217834        2.1532173312  MEMB      31              0.0000000000
      4146        31  POPC      H14X           22.0309628942       13.7450631484        1.5889611845  MEMB      31              0.0000000000
      4147        31  POPC      H14Y           22.5892503420       12.1965942179        1.4724749010  MEMB      31              0.0000000000
      4148        31  POPC      C315           20.8829380748       12.8589979173        1.3640273495  MEMB      31              0.0000000000
      4149        31  POPC      H15X           20.6153695689       11.8684314206        1.7886661806  MEMB      31              0.0000000000
      4150        31  POPC      H15Y           20.8318995292       12.6237320067        0.2701038739  MEMB      31              0.0000000000
      4151        31  POPC      C316           19.9820296537       14.0635668636        1.6472838757  MEMB      31              0.0000000000
      4152        31  POPC      H16X           19.9401700296       14.7890081544        0.8169231128  MEMB      31              0.0000000000
      4153        31  POPC      H16Y           20.4114002918       14.5298272037        2.5595950409  MEMB      31              0.0000000000
      4154        31  POPC      H16Z           18.9584931979       13.7404280439        1.8750882436  MEMB      31              0.0000000000
      4155        32  POPC      N              25.1454707719      -23.2569489379       19.7565806065  MEMB      32              0.0000000000
      4156        32  POPC      C12            24.6876815081      -22.7676841505       18.3817389029  MEMB      32              0.0000000000
      4157        32  POPC      H12A           23.9961197033      -23.5231915441       17.9725588608  MEMB      32              0.0000000000
      4158        32  POPC      H12B           25.5228623248      -22.7459963565       17.6953384757  MEMB      32              0.0000000000
      4159        32  POPC      C13            23.9517576318      -23.2439610137       20.5962189589  MEMB      32              0.0000000000
      4160        32  POPC      H13A           23.2132517970      -23.7775821266       20.0091598964  MEMB      32              0.0000000000
      4161        32  POPC      H13B           24.0044406085      -23.6861571885       21.5666273526  MEMB      32              0.0000000000
      4162        32  POPC      H13C           23.5318756688      -22.2204526682       20.6593710110  MEMB      32              0.0000000000
      4163        32  POPC      C14            25.7342049000      -24.5535040574       19.4370721618  MEMB      32              0.0000000000
      4164        32  POPC      H14A           26.4070653607      -24.8274094289       20.2546917922  MEMB      32              0.0000000000
      4165        32  POPC      H14B           24.9836587638      -25.3204283842       19.2916975900  MEMB      32              0.0000000000
      4166        32  POPC      H14C           26.4000205363      -24.5210994121       18.5784201709  MEMB      32              0.0000000000
      4167        32  POPC      C15            26.1977001117      -22.5198807033       20.4663398273  MEMB      32              0.0000000000
      4168        32  POPC      H15A           27.0095336676      -22.5289423017       19.7228756809  MEMB      32              0.0000000000
      4169        32  POPC      H15B           26.8153726744      -22.9022689252       21.2538767428  MEMB      32              0.0000000000
      4170        32  POPC      H15C           25.9839526798      -21.4532427062       20.5418002795  MEMB      32              0.0000000000
      4171        32  POPC      C11            23.8868590214      -21.4603988396       18.3141172872  MEMB      32              0.0000000000
      4172        32  POPC      H11A           23.6987117969      -21.1935463593       17.2379419076  MEMB      32              0.0000000000
      4173        32  POPC      H11B           24.4658733943      -20.6443102337       18.7674575004  MEMB      32              0.0000000000
      4174        32  POPC      P              21.4033468634      -22.1869219345       18.5972398852  MEMB      32              0.0000000000
      4175        32  POPC      O13            20.6953267870      -21.0479735348       18.0508672341  MEMB      32              0.0000000000
      4176        32  POPC      O14            20.8033374399      -22.8784085335       19.7440349779  MEMB      32              0.0000000000
      4177        32  POPC      O12            22.7163502405      -21.5398525876       19.0924425562  MEMB      32              0.0000000000
      4178        32  POPC      O11            21.9504221842      -23.2816950709       17.5883640757  MEMB      32              0.0000000000
      4179        32  POPC      C1             20.9991592853      -24.1170834680       16.9221053219  MEMB      32              0.0000000000
      4180        32  POPC      HA             20.5395465472      -23.5693102810       16.0675572442  MEMB      32              0.0000000000
      4181        32  POPC      HB             20.1786446184      -24.4491391980       17.5997013054  MEMB      32              0.0000000000
      4182        32  POPC      C2             21.6767119682      -25.3711861380       16.3295535356  MEMB      32              0.0000000000
      4183        32  POPC      HS             21.8953580013      -26.0697484628       17.1805712006  MEMB      32              0.0000000000
      4184        32  POPC      O21            22.8783748446      -24.9881677745       15.6116052470  MEMB      32              0.0000000000
      4185        32  POPC      C21            23.7802274904      -25.9368852862       15.4149712872  MEMB      32              0.0000000000
      4186        32  POPC      O22            23.8366685028      -26.9938557361       15.9643167207  MEMB      32              0.0000000000
      4187        32  POPC      C22            24.8904722731      -25.4959403180       14.5212720871  MEMB      32              0.0000000000
      4188        32  POPC      H2R            25.7929821061      -25.9292410890       15.0091582737  MEMB      32              0.0000000000
      4189        32  POPC      H2S            24.9145247353      -24.3933351531       14.5403088684  MEMB      32              0.0000000000
      4190        32  POPC      C3             20.7466412270      -26.0923795890       15.3331737862  MEMB      32              0.0000000000
      4191        32  POPC      HX             19.8479499500      -26.5530202017       15.8037623194  MEMB      32              0.0000000000
      4192        32  POPC      HY             21.4652584574      -26.8408574532       15.0013270152  MEMB      32              0.0000000000
      4193        32  POPC      O31            20.4173014088      -25.2666804372       14.2177996617  MEMB      32              0.0000000000
      4194        32  POPC      C31            19.9325695664      -25.7654398900       13.1143613523  MEMB      32              0.0000000000
      4195        32  POPC      O32            19.5775582587      -26.8716062370       12.7975563050  MEMB      32              0.0000000000
      4196        32  POPC      C32            19.6572801101      -24.7631413258       12.1472156520  MEMB      32              0.0000000000
      4197        32  POPC      H2X            20.1572942938      -23.8016325756       12.3341647021  MEMB      32              0.0000000000
      4198        32  POPC      H2Y            18.5747646192      -24.7067303584       12.3774879478  MEMB      32              0.0000000000
      4199        32  POPC      C23            24.8094652146      -26.0427420366       13.0925877418  MEMB      32              0.0000000000
      4200        32  POPC      H3R            24.4727397351      -27.0996822293       13.0262305834  MEMB      32              0.0000000000
      4201        32  POPC      H3S            25.8541941426      -26.0389371607       12.6978179169  MEMB      32              0.0000000000
      4202        32  POPC      C24            23.9949361526      -25.1140098613       12.1958276229  MEMB      32              0.0000000000
      4203        32  POPC      H4R            24.0424799211      -24.0767510374       12.5874569142  MEMB      32              0.0000000000
      4204        32  POPC      H4S            22.9216804974      -25.3893658366       12.1925008871  MEMB      32              0.0000000000
      4205        32  POPC      C25            24.5719560889      -25.1823412439       10.7942367445  MEMB      32              0.0000000000
      4206        32  POPC      H5R            24.6564655911      -26.1910278600       10.4833041259  MEMB      32              0.0000000000
      4207        32  POPC      H5S            25.6455623424      -24.9094938618       10.7534550483  MEMB      32              0.0000000000
      4208        32  POPC      C26            23.7357688352      -24.6250480999        9.6763588422  MEMB      32              0.0000000000
      4209        32  POPC      H6R            22.6393043200      -24.5658202740        9.8410126847  MEMB      32              0.0000000000
      4210        32  POPC      H6S            23.9185326354      -25.2210662747        8.7555834909  MEMB      32              0.0000000000
      4211        32  POPC      C27            24.3142348405      -23.2933132535        9.4415563480  MEMB      32              0.0000000000
      4212        32  POPC      H7R            25.4233728971      -23.3912224186        9.7500701912  MEMB      32              0.0000000000
      4213        32  POPC      H7S            23.7657734684      -22.7011788374       10.2534285067  MEMB      32              0.0000000000
      4214        32  POPC      C28            24.2572830643      -22.9938555062        7.9536013785  MEMB      32              0.0000000000
      4215        32  POPC      H8R            23.1088468776      -23.0644947098        7.6166725845  MEMB      32              0.0000000000
      4216        32  POPC      H8S            24.8590728405      -23.4781715302        7.2657753167  MEMB      32              0.0000000000
      4217        32  POPC      C29            24.6736034693      -21.5883442445        8.4044883261  MEMB      32              0.0000000000
      4218        32  POPC      H91            23.7503336672      -21.3416400084        8.6810933034  MEMB      32              0.0000000000
      4219        32  POPC      C210           25.8685209915      -20.9986282714        7.7414946733  MEMB      32              0.0000000000
      4220        32  POPC      H101           25.1974744040      -19.9091049878        7.9948156614  MEMB      32              0.0000000000
      4221        32  POPC      C211           25.9083954689      -20.9756216402        5.8684089222  MEMB      32              0.0000000000
      4222        32  POPC      H11R           25.8443833058      -22.0783235754        5.9822584546  MEMB      32              0.0000000000
      4223        32  POPC      H11S           27.1114021955      -20.8621348513        5.7006726181  MEMB      32              0.0000000000
      4224        32  POPC      C212           24.5374997804      -19.9756437685        4.2346794698  MEMB      32              0.0000000000
      4225        32  POPC      H12R           25.1690859325      -20.1065624372        3.5435202485  MEMB      32              0.0000000000
      4226        32  POPC      H12S           24.0848094555      -18.8051097672        4.4573157580  MEMB      32              0.0000000000
      4227        32  POPC      C213           23.1116420631      -20.2430386476        3.4980389540  MEMB      32              0.0000000000
      4228        32  POPC      H13R           22.2747980656      -20.1789425844        4.1566421063  MEMB      32              0.0000000000
      4229        32  POPC      H13S           23.0660836235      -21.3144271083        3.3637814963  MEMB      32              0.0000000000
      4230        32  POPC      C214           22.5342425945      -19.6031020398        2.2289018491  MEMB      32              0.0000000000
      4231        32  POPC      H14R           23.2128404531      -20.0186949596        1.4754928478  MEMB      32              0.0000000000
      4232        32  POPC      H14S           22.4734633539      -18.5005947443        2.0593143628  MEMB      32              0.0000000000
      4233        32  POPC      C215           21.0837161545      -20.0610792692        2.2130631061  MEMB      32              0.0000000000
      4234        32  POPC      H15R           20.5036494778      -19.4003307837        1.5533273982  MEMB      32              0.0000000000
      4235        32  POPC      H15S           20.7196449087      -19.9668220265        3.2265571313  MEMB      32              0.0000000000
      4236        32  POPC      C216           20.7464830687      -21.4656093652        1.8295336829  MEMB      32              0.0000000000
      4237        32  POPC      H16R           19.6369479055      -21.5188575856        1.7090482236  MEMB      32              0.0000000000
      4238        32  POPC      H16S           21.0090376140      -22.2435837500        2.5814451612  MEMB      32              0.0000000000
      4239        32  POPC      C217           21.4879893143      -21.6088348640        0.5429649585  MEMB      32              0.0000000000
      4240        32  POPC      H17R           22.5546342157      -21.8207663630        0.7972969879  MEMB      32              0.0000000000
      4241        32  POPC      H17S           21.4154265579      -20.6727607726       -0.0608788409  MEMB      32              0.0000000000
      4242        32  POPC      C218           20.9341147283      -22.7269764595       -0.2297330873  MEMB      32              0.0000000000
      4243        32  POPC      H18R           19.9309763173      -22.5151559741       -0.6607923957  MEMB      32              0.0000000000
      4244        32  POPC      H18S           20.8386660557      -23.5471965730        0.5175798634  MEMB      32              0.0000000000
      4245        32  POPC      H18T           21.6399115305      -23.0053545964       -1.0408263581  MEMB      32              0.0000000000
      4246        32  POPC      C33            19.9566774476      -25.4951732142       10.8326755489  MEMB      32              0.0000000000
      4247        32  POPC      H3X            19.2885555307      -26.3925704457       10.6380745061  MEMB      32              0.0000000000
      4248        32  POPC      H3Y            21.0060103084      -25.7209138697       10.5987241439  MEMB      32              0.0000000000
      4249        32  POPC      C34            19.5506064113      -24.6299671178        9.7654814645  MEMB      32              0.0000000000
      4250        32  POPC      H4X            19.9853951907      -23.6197449401        9.8126843609  MEMB      32              0.0000000000
      4251        32  POPC      H4Y            18.5568566094      -24.5953832135       10.2554953843  MEMB      32              0.0000000000
      4252        32  POPC      C35            19.6026828170      -25.3718078634        8.4498066939  MEMB      32              0.0000000000
      4253        32  POPC      H5X            18.8212777645      -25.2720043449        7.7038476731  MEMB      32              0.0000000000
      4254        32  POPC      H5Y            19.2144143247      -26.3976058604        8.5303703349  MEMB      32              0.0000000000
      4255        32  POPC      C36            20.6038866713      -24.7622346624        7.5176561370  MEMB      32              0.0000000000
      4256        32  POPC      H6X            21.5325351000      -25.2890139650        7.7922893433  MEMB      32              0.0000000000
      4257        32  POPC      H6Y            20.7026626650      -23.6686912934        7.6098580324  MEMB      32              0.0000000000
      4258        32  POPC      C37            20.1822292751      -25.0504064907        6.1052482095  MEMB      32              0.0000000000
      4259        32  POPC      H7X            19.3262486106      -24.5631347652        5.5954583500  MEMB      32              0.0000000000
      4260        32  POPC      H7Y            19.7892473715      -26.0085520889        6.3959514362  MEMB      32              0.0000000000
      4261        32  POPC      C38            21.3634163821      -25.3838036619        5.2889718900  MEMB      32              0.0000000000
      4262        32  POPC      H8X            21.1383320558      -25.9279581866        4.3568370345  MEMB      32              0.0000000000
      4263        32  POPC      H8Y            21.9614245100      -26.1040315410        5.9005361476  MEMB      32              0.0000000000
      4264        32  POPC      C39            21.9327603112      -24.1666349860        4.7086378163  MEMB      32              0.0000000000
      4265        32  POPC      H9X            21.7799426424      -23.3006518487        5.3543256163  MEMB      32              0.0000000000
      4266        32  POPC      H9Y            21.3685464072      -24.0288949744        3.7402704058  MEMB      32              0.0000000000
      4267        32  POPC      C310           23.4111649685      -24.3460046616        4.5529991259  MEMB      32              0.0000000000
      4268        32  POPC      H10X           24.0165121949      -24.1707839697        5.4376593389  MEMB      32              0.0000000000
      4269        32  POPC      H10Y           23.6815863633      -23.6795725886        3.6923479541  MEMB      32              0.0000000000
      4270        32  POPC      C311           23.8221326379      -25.7355809036        4.2753967208  MEMB      32              0.0000000000
      4271        32  POPC      H11X           23.3444651693      -26.6477820638        4.7309301878  MEMB      32              0.0000000000
      4272        32  POPC      H11Y           24.9181075653      -25.8488454216        4.2961872271  MEMB      32              0.0000000000
      4273        32  POPC      C312           23.4660376362      -25.6933993602        2.9228603980  MEMB      32              0.0000000000
      4274        32  POPC      H12X           22.5076464586      -25.2013547704        2.6924325854  MEMB      32              0.0000000000
      4275        32  POPC      H12Y           23.1572092054      -26.7504246056        2.8962705483  MEMB      32              0.0000000000
      4276        32  POPC      C313           24.6216109620      -25.3847081121        1.9893086736  MEMB      32              0.0000000000
      4277        32  POPC      H13X           24.2009778708      -25.5192409230        1.0666747777  MEMB      32              0.0000000000
      4278        32  POPC      H13Y           25.5027268538      -26.0124064203        1.8388692393  MEMB      32              0.0000000000
      4279        32  POPC      C314           24.9942520497      -24.1073252870        1.4943743820  MEMB      32              0.0000000000
      4280        32  POPC      H14X           25.5758013395      -23.8141495101        2.3826300527  MEMB      32              0.0000000000
      4281        32  POPC      H14Y           24.0337048193      -23.5652934908        1.2790837908  MEMB      32              0.0000000000
      4282        32  POPC      C315           25.8030997446      -24.5925887014        0.2772853027  MEMB      32              0.0000000000
      4283        32  POPC      H15X           25.2264930402      -25.0846328162       -0.5378498405  MEMB      32              0.0000000000
      4284        32  POPC      H15Y           26.7694383706      -25.0772806315        0.5389566520  MEMB      32              0.0000000000
      4285        32  POPC      C316           26.0972064143      -23.5419653633       -0.4845275509  MEMB      32              0.0000000000
      4286        32  POPC      H16X           26.6238392594      -23.5029783493       -1.4472804523  MEMB      32              0.0000000000
      4287        32  POPC      H16Y           26.6518287312      -23.0140850927        0.3288355706  MEMB      32              0.0000000000
      4288        32  POPC      H16Z           25.0413964684      -23.1594703572       -0.6157129882  MEMB      32              0.0000000000
      4289        33  POPC      N               0.6022859898        2.3148113643      -21.0587840027  MEMB      33              0.0000000000
      4290        33  POPC      C12             1.3224605765        3.5636278725      -20.5428097283  MEMB      33              0.0000000000
      4291        33  POPC      H12A            1.4954464680        4.2509653170      -21.3689119433  MEMB      33              0.0000000000
      4292        33  POPC      H12B            2.2908134713        3.2481007373      -20.1819056036  MEMB      33              0.0000000000
      4293        33  POPC      C13             1.4637114426        1.6959834824      -22.0985405246  MEMB      33              0.0000000000
      4294        33  POPC      H13A            1.4141230335        2.2748979962      -23.0184207291  MEMB      33              0.0000000000
      4295        33  POPC      H13B            2.5043898826        1.6805828437      -21.7865209670  MEMB      33              0.0000000000
      4296        33  POPC      H13C            1.1655470065        0.6683350005      -22.2606541696  MEMB      33              0.0000000000
      4297        33  POPC      C14             0.3958966232        1.3373109230      -19.9524650881  MEMB      33              0.0000000000
      4298        33  POPC      H14A           -0.2688556939        1.7738871420      -19.2023896480  MEMB      33              0.0000000000
      4299        33  POPC      H14B           -0.0170032699        0.4270696993      -20.3331013897  MEMB      33              0.0000000000
      4300        33  POPC      H14C            1.3153390753        1.1421030149      -19.4209507073  MEMB      33              0.0000000000
      4301        33  POPC      C15            -0.7321278616        2.6819545458      -21.6429510410  MEMB      33              0.0000000000
      4302        33  POPC      H15A           -1.3211490013        3.2003260723      -20.8869607372  MEMB      33              0.0000000000
      4303        33  POPC      H15B           -1.2865823373        1.8211859718      -21.9925899460  MEMB      33              0.0000000000
      4304        33  POPC      H15C           -0.5959165691        3.3615473725      -22.4806480915  MEMB      33              0.0000000000
      4305        33  POPC      C11             0.7123186071        4.4418321203      -19.4178890162  MEMB      33              0.0000000000
      4306        33  POPC      H11A           -0.1283535956        5.0376487326      -19.8367733622  MEMB      33              0.0000000000
      4307        33  POPC      H11B            1.5135025366        5.1759857745      -19.1334840354  MEMB      33              0.0000000000
      4308        33  POPC      P               0.5522101990        4.1639834180      -16.8148109094  MEMB      33              0.0000000000
      4309        33  POPC      O13            -0.6418523083        4.8707541108      -16.2953969308  MEMB      33              0.0000000000
      4310        33  POPC      O14             1.8972070159        4.7802325277      -16.7589903575  MEMB      33              0.0000000000
      4311        33  POPC      O12             0.2636612328        3.6656584546      -18.3060347635  MEMB      33              0.0000000000
      4312        33  POPC      O11             0.6819627356        2.7137940721      -16.1448393430  MEMB      33              0.0000000000
      4313        33  POPC      C1              1.8862612770        1.9503267749      -16.2840387956  MEMB      33              0.0000000000
      4314        33  POPC      HA              2.7646695214        2.5518825540      -15.9582681531  MEMB      33              0.0000000000
      4315        33  POPC      HB              2.0358633555        1.6963963615      -17.3565856972  MEMB      33              0.0000000000
      4316        33  POPC      C2              1.8817260803        0.5957163154      -15.4801377905  MEMB      33              0.0000000000
      4317        33  POPC      HS              2.5467939765       -0.1165300648      -16.0123328997  MEMB      33              0.0000000000
      4318        33  POPC      O21             0.5362464779        0.0635456681      -15.4391407923  MEMB      33              0.0000000000
      4319        33  POPC      C21             0.3608955679       -1.1582667697      -14.9566098679  MEMB      33              0.0000000000
      4320        33  POPC      O22             1.2542158657       -1.9036452044      -14.5988855136  MEMB      33              0.0000000000
      4321        33  POPC      C22            -1.1329244697       -1.5285986909      -15.0325131579  MEMB      33              0.0000000000
      4322        33  POPC      H2R            -1.2250602284       -2.6124275103      -14.8284119688  MEMB      33              0.0000000000
      4323        33  POPC      H2S            -1.4709416431       -1.3512320735      -16.0746334003  MEMB      33              0.0000000000
      4324        33  POPC      C3              2.4752742787        0.7901920378      -14.0332632860  MEMB      33              0.0000000000
      4325        33  POPC      HX              3.5426719004        1.0841931140      -14.1542535992  MEMB      33              0.0000000000
      4326        33  POPC      HY              2.4582902050       -0.1703825732      -13.4746498436  MEMB      33              0.0000000000
      4327        33  POPC      O31             1.7975881246        1.7978247149      -13.2748376499  MEMB      33              0.0000000000
      4328        33  POPC      C31             2.3037103392        1.9955717781      -12.0665369927  MEMB      33              0.0000000000
      4329        33  POPC      O32             3.3118592332        1.4687782623      -11.6290427025  MEMB      33              0.0000000000
      4330        33  POPC      C32             1.4179251709        2.9492482673      -11.2907310183  MEMB      33              0.0000000000
      4331        33  POPC      H2X             1.7003198386        3.9794092856      -11.6048409172  MEMB      33              0.0000000000
      4332        33  POPC      H2Y             1.6567284622        2.8402105936      -10.2134825956  MEMB      33              0.0000000000
      4333        33  POPC      C23            -2.0335164766       -0.6892257370      -14.0923253435  MEMB      33              0.0000000000
      4334        33  POPC      H3R            -3.1119561063       -0.9411286163      -14.2372857494  MEMB      33              0.0000000000
      4335        33  POPC      H3S            -1.9094066472        0.3864276147      -14.3504565693  MEMB      33              0.0000000000
      4336        33  POPC      C24            -1.7245084486       -0.8616250404      -12.6100923027  MEMB      33              0.0000000000
      4337        33  POPC      H4R            -0.6542349887       -0.6131802837      -12.4231468513  MEMB      33              0.0000000000
      4338        33  POPC      H4S            -1.8942094510       -1.9245797333      -12.3231762108  MEMB      33              0.0000000000
      4339        33  POPC      C25            -2.6426743252        0.0014904064      -11.7340535075  MEMB      33              0.0000000000
      4340        33  POPC      H5R            -3.6966206645       -0.2662082481      -11.9771482247  MEMB      33              0.0000000000
      4341        33  POPC      H5S            -2.4992755780        1.0851409574      -11.9197254722  MEMB      33              0.0000000000
      4342        33  POPC      C26            -2.4047236661       -0.2987863753      -10.2673802676  MEMB      33              0.0000000000
      4343        33  POPC      H6R            -1.3955257663        0.0593822153       -9.9572731199  MEMB      33              0.0000000000
      4344        33  POPC      H6S            -2.4724257034       -1.4035035929      -10.2053857898  MEMB      33              0.0000000000
      4345        33  POPC      C27            -3.4363047549        0.2626540197       -9.3144913180  MEMB      33              0.0000000000
      4346        33  POPC      H7R            -4.4579158784       -0.1032695514       -9.5677942528  MEMB      33              0.0000000000
      4347        33  POPC      H7S            -3.4321232525        1.3705825309       -9.3859021285  MEMB      33              0.0000000000
      4348        33  POPC      C28            -3.1696979421       -0.1462569315       -7.8728676660  MEMB      33              0.0000000000
      4349        33  POPC      H8R            -3.3701532423       -1.2241796469       -7.6836630068  MEMB      33              0.0000000000
      4350        33  POPC      H8S            -4.0142663031        0.4148442684       -7.4004015951  MEMB      33              0.0000000000
      4351        33  POPC      C29            -1.8508403766        0.2865560605       -7.2592248041  MEMB      33              0.0000000000
      4352        33  POPC      H91            -1.6242349303        1.3374661264       -7.4660244646  MEMB      33              0.0000000000
      4353        33  POPC      C210           -1.1169522892       -0.3626163361       -6.3160151014  MEMB      33              0.0000000000
      4354        33  POPC      H101           -0.1567706805        0.0883479907       -6.0250844162  MEMB      33              0.0000000000
      4355        33  POPC      C211           -1.3757982524       -1.6904340873       -5.6151376207  MEMB      33              0.0000000000
      4356        33  POPC      H11R           -0.4022746970       -2.0218366844       -5.3360151759  MEMB      33              0.0000000000
      4357        33  POPC      H11S           -1.8724535770       -2.4269173163       -6.2889720418  MEMB      33              0.0000000000
      4358        33  POPC      C212           -1.9293168280       -1.9373248548       -4.1879720680  MEMB      33              0.0000000000
      4359        33  POPC      H12R           -2.0067587094       -2.9679555239       -3.8061352972  MEMB      33              0.0000000000
      4360        33  POPC      H12S           -2.9024516151       -1.7176429954       -4.3888697665  MEMB      33              0.0000000000
      4361        33  POPC      C213           -1.5909589637       -0.9674123468       -3.0851195010  MEMB      33              0.0000000000
      4362        33  POPC      H13R           -1.1976014937        0.0114033476       -3.4818084286  MEMB      33              0.0000000000
      4363        33  POPC      H13S           -0.9364933630       -1.5741082055       -2.5718199879  MEMB      33              0.0000000000
      4364        33  POPC      C214           -2.3884450109       -0.8775615756       -1.7860962235  MEMB      33              0.0000000000
      4365        33  POPC      H14R           -2.4072397474       -1.8679207197       -1.3025573348  MEMB      33              0.0000000000
      4366        33  POPC      H14S           -3.4517704161       -0.8334138013       -1.8663582657  MEMB      33              0.0000000000
      4367        33  POPC      C215           -1.9594456840        0.2775262689       -0.8781800987  MEMB      33              0.0000000000
      4368        33  POPC      H15R           -2.8207571452        0.3469281119       -0.2198661498  MEMB      33              0.0000000000
      4369        33  POPC      H15S           -1.7821622830        1.3161372945       -1.2312895073  MEMB      33              0.0000000000
      4370        33  POPC      C216           -0.8860152454       -0.1458804837       -0.0331597949  MEMB      33              0.0000000000
      4371        33  POPC      H16R            0.0874444603        0.2235337810       -0.3436891351  MEMB      33              0.0000000000
      4372        33  POPC      H16S           -0.9878842019       -1.2429755242       -0.0223480941  MEMB      33              0.0000000000
      4373        33  POPC      C217           -1.0206505875        0.2809078110        1.3319033269  MEMB      33              0.0000000000
      4374        33  POPC      H17R           -1.9424352058       -0.2289427233        1.7049552798  MEMB      33              0.0000000000
      4375        33  POPC      H17S           -0.8530192189        1.3736121124        1.4816483601  MEMB      33              0.0000000000
      4376        33  POPC      C218           -0.0363959221       -0.4968860763        1.9760398179  MEMB      33              0.0000000000
      4377        33  POPC      H18R           -0.4404082414       -1.4905981533        1.9392748341  MEMB      33              0.0000000000
      4378        33  POPC      H18S            0.1494233058       -0.2546928827        3.0329857152  MEMB      33              0.0000000000
      4379        33  POPC      H18T            0.8551951741       -0.5087877690        1.3061184157  MEMB      33              0.0000000000
      4380        33  POPC      C33            -0.0906374961        2.6725770724      -11.5391830159  MEMB      33              0.0000000000
      4381        33  POPC      H3X            -0.4758464971        1.8914428744      -10.8642835957  MEMB      33              0.0000000000
      4382        33  POPC      H3Y            -0.2780285818        2.3728429865      -12.6016409883  MEMB      33              0.0000000000
      4383        33  POPC      C34            -0.9180258904        3.9255541376      -11.3517896980  MEMB      33              0.0000000000
      4384        33  POPC      H4X            -1.9575597023        3.8471172464      -11.7255443577  MEMB      33              0.0000000000
      4385        33  POPC      H4Y            -0.3725691045        4.4989555099      -12.1045951306  MEMB      33              0.0000000000
      4386        33  POPC      C35            -0.8724181999        4.4760255384       -9.9252725199  MEMB      33              0.0000000000
      4387        33  POPC      H5X            -1.0128479746        5.5619080109       -9.8898248051  MEMB      33              0.0000000000
      4388        33  POPC      H5Y             0.1320109268        4.2920581864       -9.4964079201  MEMB      33              0.0000000000
      4389        33  POPC      C36            -1.9653232214        3.8914821853       -9.0248268901  MEMB      33              0.0000000000
      4390        33  POPC      H6X            -1.9107052996        2.7859519995       -9.0889924926  MEMB      33              0.0000000000
      4391        33  POPC      H6Y            -2.9654886158        4.2083294451       -9.4005416933  MEMB      33              0.0000000000
      4392        33  POPC      C37            -1.8297848486        4.3440666090       -7.5648733424  MEMB      33              0.0000000000
      4393        33  POPC      H7X            -2.6978933762        3.9581004390       -6.9835886026  MEMB      33              0.0000000000
      4394        33  POPC      H7Y            -1.8741810648        5.4572919532       -7.5286652452  MEMB      33              0.0000000000
      4395        33  POPC      C38            -0.5179992983        3.8611624619       -6.9274924680  MEMB      33              0.0000000000
      4396        33  POPC      H8X             0.3311915292        4.4384942304       -7.3520271077  MEMB      33              0.0000000000
      4397        33  POPC      H8Y            -0.3437208783        2.7949934733       -7.1846392847  MEMB      33              0.0000000000
      4398        33  POPC      C39            -0.5235378012        3.9539154284       -5.4021328109  MEMB      33              0.0000000000
      4399        33  POPC      H9X            -1.4369854634        3.4340770188       -5.0290011606  MEMB      33              0.0000000000
      4400        33  POPC      H9Y            -0.5688021224        5.0189530738       -5.0843673944  MEMB      33              0.0000000000
      4401        33  POPC      C310            0.6828832590        3.2707906032       -4.7535866661  MEMB      33              0.0000000000
      4402        33  POPC      H10X            1.6336177374        3.5775392835       -5.2443591407  MEMB      33              0.0000000000
      4403        33  POPC      H10Y            0.5812775774        2.1677860614       -4.8753888166  MEMB      33              0.0000000000
      4404        33  POPC      C311            0.7935466979        3.6328649165       -3.2745472549  MEMB      33              0.0000000000
      4405        33  POPC      H11X           -0.1481510281        3.3792871403       -2.7340099416  MEMB      33              0.0000000000
      4406        33  POPC      H11Y            0.9816310400        4.7236957268       -3.1703200251  MEMB      33              0.0000000000
      4407        33  POPC      C312            1.9500465943        2.9147339267       -2.6055013338  MEMB      33              0.0000000000
      4408        33  POPC      H12X            2.8328365026        2.8374441853       -3.2749754817  MEMB      33              0.0000000000
      4409        33  POPC      H12Y            1.6020787352        1.8791890135       -2.4459246312  MEMB      33              0.0000000000
      4410        33  POPC      C313            2.3403600683        3.5907448356       -1.2709647360  MEMB      33              0.0000000000
      4411        33  POPC      H13X            1.5629537031        3.2366061871       -0.5456378622  MEMB      33              0.0000000000
      4412        33  POPC      H13Y            2.2966528412        4.6850944494       -1.3452874301  MEMB      33              0.0000000000
      4413        33  POPC      C314            3.7664851755        3.3242141147       -0.7619594614  MEMB      33              0.0000000000
      4414        33  POPC      H14X            4.0185425339        3.6939245186        0.2529818953  MEMB      33              0.0000000000
      4415        33  POPC      H14Y            4.5732697089        3.3973529614       -1.5294218277  MEMB      33              0.0000000000
      4416        33  POPC      C315            3.7653793412        1.9262010278       -0.5116961251  MEMB      33              0.0000000000
      4417        33  POPC      H15X            3.5992152502        1.5821799911       -1.5558482538  MEMB      33              0.0000000000
      4418        33  POPC      H15Y            2.8327518781        1.8088226250        0.1007063450  MEMB      33              0.0000000000
      4419        33  POPC      C316            4.9102584672        1.1580201416        0.1109247491  MEMB      33              0.0000000000
      4420        33  POPC      H16X            4.3815444466        1.3743381650        1.0647504084  MEMB      33              0.0000000000
      4421        33  POPC      H16Y            5.6031213395        1.2081076347        0.9032929141  MEMB      33              0.0000000000
      4422        33  POPC      H16Z            4.9652906442        0.0776151502       -0.0711873271  MEMB      33              0.0000000000
      4423        34  POPC      N              -0.8357235296       -2.9121662461      -19.4988625430  MEMB      34              0.0000000000
      4424        34  POPC      C12            -1.0844771138       -3.7935514449      -18.2754161335  MEMB      34              0.0000000000
      4425        34  POPC      H12A           -1.7197730880       -3.2326014144      -17.6015689565  MEMB      34              0.0000000000
      4426        34  POPC      H12B           -0.1403786350       -3.9688662283      -17.7605250854  MEMB      34              0.0000000000
      4427        34  POPC      C13            -0.4454482224       -1.5625873309      -19.0223414594  MEMB      34              0.0000000000
      4428        34  POPC      H13A           -0.1817654884       -0.9527649425      -19.8682376774  MEMB      34              0.0000000000
      4429        34  POPC      H13B           -1.2408614477       -1.0863168890      -18.4560528447  MEMB      34              0.0000000000
      4430        34  POPC      H13C            0.4404007349       -1.6123783132      -18.4030865813  MEMB      34              0.0000000000
      4431        34  POPC      C14             0.3034772083       -3.4360249931      -20.3167688228  MEMB      34              0.0000000000
      4432        34  POPC      H14A            1.2405060477       -3.3996826666      -19.7629947872  MEMB      34              0.0000000000
      4433        34  POPC      H14B            0.1604525778       -4.4792091110      -20.5889685085  MEMB      34              0.0000000000
      4434        34  POPC      H14C            0.4399612746       -2.8530548885      -21.2216360003  MEMB      34              0.0000000000
      4435        34  POPC      C15            -2.0510249790       -2.7958265453      -20.3736560891  MEMB      34              0.0000000000
      4436        34  POPC      H15A           -2.9196764117       -2.4532441392      -19.8264284824  MEMB      34              0.0000000000
      4437        34  POPC      H15B           -2.2752986581       -3.7573502988      -20.8201641916  MEMB      34              0.0000000000
      4438        34  POPC      H15C           -1.9144430104       -2.1141775959      -21.1946064940  MEMB      34              0.0000000000
      4439        34  POPC      C11            -1.7435830519       -5.1893148030      -18.4458605859  MEMB      34              0.0000000000
      4440        34  POPC      H11A           -2.7556308696       -5.0451910689      -18.8856467210  MEMB      34              0.0000000000
      4441        34  POPC      H11B           -1.9119704508       -5.6231866673      -17.4281264100  MEMB      34              0.0000000000
      4442        34  POPC      P               0.0975778174       -7.0665402105      -18.6314312772  MEMB      34              0.0000000000
      4443        34  POPC      O13             1.0323588176       -6.2648254290      -17.8123460350  MEMB      34              0.0000000000
      4444        34  POPC      O14             0.6542340369       -7.8955245995      -19.7316661875  MEMB      34              0.0000000000
      4445        34  POPC      O12            -0.9723258673       -6.0635259738      -19.2749886787  MEMB      34              0.0000000000
      4446        34  POPC      O11            -0.7167973078       -8.0369912933      -17.6572424556  MEMB      34              0.0000000000
      4447        34  POPC      C1              0.0431352847       -8.8692950114      -16.7561599543  MEMB      34              0.0000000000
      4448        34  POPC      HA              0.6161699031       -8.2375964145      -16.0461454350  MEMB      34              0.0000000000
      4449        34  POPC      HB              0.7764907303       -9.4982368056      -17.3130661973  MEMB      34              0.0000000000
      4450        34  POPC      C2             -0.8687105999       -9.7746764142      -15.8561945704  MEMB      34              0.0000000000
      4451        34  POPC      HS             -1.4101746463      -10.4437249495      -16.5546821060  MEMB      34              0.0000000000
      4452        34  POPC      O21            -1.7852565671       -8.9013670789      -15.1662377208  MEMB      34              0.0000000000
      4453        34  POPC      C21            -2.5777353516       -9.3517116683      -14.2088590039  MEMB      34              0.0000000000
      4454        34  POPC      O22            -2.6763862557      -10.4817360693      -13.7833540237  MEMB      34              0.0000000000
      4455        34  POPC      C22            -3.2423533046       -8.1439812301      -13.5420963808  MEMB      34              0.0000000000
      4456        34  POPC      H2R            -3.6619797337       -8.5262639473      -12.5903227773  MEMB      34              0.0000000000
      4457        34  POPC      H2S            -4.0695418978       -7.8069379858      -14.1968622333  MEMB      34              0.0000000000
      4458        34  POPC      C3             -0.0354668160      -10.6511006258      -14.8604744713  MEMB      34              0.0000000000
      4459        34  POPC      HX              0.6568669779      -11.2695647063      -15.4801794624  MEMB      34              0.0000000000
      4460        34  POPC      HY             -0.6341406128      -11.3734719294      -14.2780578883  MEMB      34              0.0000000000
      4461        34  POPC      O31             0.7167151628       -9.8144998893      -13.9903492622  MEMB      34              0.0000000000
      4462        34  POPC      C31             0.4726516803       -9.7276339733      -12.6768831369  MEMB      34              0.0000000000
      4463        34  POPC      O32            -0.3371047920      -10.3555412385      -12.0429208487  MEMB      34              0.0000000000
      4464        34  POPC      C32             1.5259568827       -8.8386957390      -12.0263283441  MEMB      34              0.0000000000
      4465        34  POPC      H2X             1.6397237327       -7.8626002708      -12.5605738865  MEMB      34              0.0000000000
      4466        34  POPC      H2Y             2.4096612189       -9.5150955400      -12.0630946007  MEMB      34              0.0000000000
      4467        34  POPC      C23            -2.2432789589       -6.9870187072      -13.2805664013  MEMB      34              0.0000000000
      4468        34  POPC      H3R            -2.2031749568       -6.3393868474      -14.1836464868  MEMB      34              0.0000000000
      4469        34  POPC      H3S            -1.2214128185       -7.4067356560      -13.1232562252  MEMB      34              0.0000000000
      4470        34  POPC      C24            -2.5279162591       -6.1425145965      -12.0364068724  MEMB      34              0.0000000000
      4471        34  POPC      H4R            -2.5922135550       -6.7973843876      -11.1381682276  MEMB      34              0.0000000000
      4472        34  POPC      H4S            -3.4888140620       -5.6099400805      -12.1034730566  MEMB      34              0.0000000000
      4473        34  POPC      C25            -1.4371127466       -5.0920500622      -11.8326057952  MEMB      34              0.0000000000
      4474        34  POPC      H5R            -1.5090313860       -4.2993625726      -12.6134186629  MEMB      34              0.0000000000
      4475        34  POPC      H5S            -0.4386754736       -5.5746495393      -11.9382018738  MEMB      34              0.0000000000
      4476        34  POPC      C26            -1.5170642178       -4.4707989040      -10.4440149172  MEMB      34              0.0000000000
      4477        34  POPC      H6R            -1.3586808193       -5.2648875818       -9.6781651993  MEMB      34              0.0000000000
      4478        34  POPC      H6S            -2.5139702810       -4.0110153962      -10.2672675891  MEMB      34              0.0000000000
      4479        34  POPC      C27            -0.4400904185       -3.4169498589      -10.2614946554  MEMB      34              0.0000000000
      4480        34  POPC      H7R            -0.4737192007       -2.6881000105      -11.0983659489  MEMB      34              0.0000000000
      4481        34  POPC      H7S             0.5478729401       -3.9322587887      -10.3350913084  MEMB      34              0.0000000000
      4482        34  POPC      C28            -0.5742854567       -2.7086799718       -8.9146555412  MEMB      34              0.0000000000
      4483        34  POPC      H8R            -0.7026379089       -3.4484083898       -8.1000600606  MEMB      34              0.0000000000
      4484        34  POPC      H8S            -1.4704815898       -2.0952261044       -8.7995840981  MEMB      34              0.0000000000
      4485        34  POPC      C29             0.6529048642       -1.8618925352       -8.8142368483  MEMB      34              0.0000000000
      4486        34  POPC      H91             0.6246437377       -0.8950042396       -9.3436811776  MEMB      34              0.0000000000
      4487        34  POPC      C210            1.7369971679       -2.2430058071       -8.1382081072  MEMB      34              0.0000000000
      4488        34  POPC      H101            2.6316571348       -1.6100095281       -8.1669405682  MEMB      34              0.0000000000
      4489        34  POPC      C211            1.8787393860       -3.5430372537       -7.3881232433  MEMB      34              0.0000000000
      4490        34  POPC      H11R            2.7861025863       -4.1048571530       -7.6835095127  MEMB      34              0.0000000000
      4491        34  POPC      H11S            1.0174708193       -4.2455245677       -7.5038865044  MEMB      34              0.0000000000
      4492        34  POPC      C212            1.9955934372       -3.2033705743       -5.9123261338  MEMB      34              0.0000000000
      4493        34  POPC      H12R            1.0022429402       -2.9958049724       -5.5554563522  MEMB      34              0.0000000000
      4494        34  POPC      H12S            2.6203197697       -2.3051355274       -5.7082292209  MEMB      34              0.0000000000
      4495        34  POPC      C213            2.4206652903       -4.3992857013       -5.0849010456  MEMB      34              0.0000000000
      4496        34  POPC      H13R            3.4208345120       -4.6838641477       -5.4628306392  MEMB      34              0.0000000000
      4497        34  POPC      H13S            1.6990372192       -5.2377568189       -5.2022503879  MEMB      34              0.0000000000
      4498        34  POPC      C214            2.4874718329       -4.0597376363       -3.6131117942  MEMB      34              0.0000000000
      4499        34  POPC      H14R            3.1134958121       -3.1531030251       -3.5695747131  MEMB      34              0.0000000000
      4500        34  POPC      H14S            3.0207248590       -4.8510128470       -3.0493787698  MEMB      34              0.0000000000
      4501        34  POPC      C215            1.1037194812       -3.8769690076       -2.9976061633  MEMB      34              0.0000000000
      4502        34  POPC      H15R            0.4342823947       -4.7202396896       -3.2511332865  MEMB      34              0.0000000000
      4503        34  POPC      H15S            0.5909585147       -2.9760565401       -3.3839510295  MEMB      34              0.0000000000
      4504        34  POPC      C216            1.1769348546       -3.7995964372       -1.4999214405  MEMB      34              0.0000000000
      4505        34  POPC      H16R            1.7846633589       -2.9401532282       -1.1601679515  MEMB      34              0.0000000000
      4506        34  POPC      H16S            1.7035252246       -4.6550922946       -1.0354359221  MEMB      34              0.0000000000
      4507        34  POPC      C217           -0.1986979931       -3.6196903744       -0.9309504710  MEMB      34              0.0000000000
      4508        34  POPC      H17R           -0.8808814850       -4.4853529944       -1.0060617777  MEMB      34              0.0000000000
      4509        34  POPC      H17S           -0.7505213486       -2.7910958145       -1.3173984105  MEMB      34              0.0000000000
      4510        34  POPC      C218            0.0811327205       -3.2769652100        0.4461987522  MEMB      34              0.0000000000
      4511        34  POPC      H18R           -0.8434187446       -3.2409559513        1.0703821835  MEMB      34              0.0000000000
      4512        34  POPC      H18S            0.6394870238       -2.4249936378        0.6906494562  MEMB      34              0.0000000000
      4513        34  POPC      H18T            0.8623975922       -3.9811866034        0.7627845732  MEMB      34              0.0000000000
      4514        34  POPC      C33             1.4668296429       -8.3326971109      -10.6311661948  MEMB      34              0.0000000000
      4515        34  POPC      H3X             0.4101353683       -8.0962010144      -10.4592023736  MEMB      34              0.0000000000
      4516        34  POPC      H3Y             2.0011001769       -7.3372829534      -10.5880642719  MEMB      34              0.0000000000
      4517        34  POPC      C34             2.1828304778       -9.3149922875       -9.6963701248  MEMB      34              0.0000000000
      4518        34  POPC      H4X             3.2507823102       -9.5601006626       -9.9333943997  MEMB      34              0.0000000000
      4519        34  POPC      H4Y             1.6960348014      -10.3017616459       -9.7835441645  MEMB      34              0.0000000000
      4520        34  POPC      C35             2.1670331685       -8.7029677498       -8.3162213649  MEMB      34              0.0000000000
      4521        34  POPC      H5X             2.8786523614       -7.8625078216       -8.2809044373  MEMB      34              0.0000000000
      4522        34  POPC      H5Y             2.4534438397       -9.4794429451       -7.5754600372  MEMB      34              0.0000000000
      4523        34  POPC      C36             0.8843173514       -7.9767267589       -7.9659072792  MEMB      34              0.0000000000
      4524        34  POPC      H6X             0.6620569407       -7.1715205413       -8.7009044306  MEMB      34              0.0000000000
      4525        34  POPC      H6Y             1.0517800264       -7.4371195947       -7.0144233756  MEMB      34              0.0000000000
      4526        34  POPC      C37            -0.2387731700       -8.9936874034       -7.9069110375  MEMB      34              0.0000000000
      4527        34  POPC      H7X             0.0111693538       -9.7478997621       -7.1297290851  MEMB      34              0.0000000000
      4528        34  POPC      H7Y            -0.2546266467       -9.5440779145       -8.8788216166  MEMB      34              0.0000000000
      4529        34  POPC      C38            -1.6252244072       -8.3835960728       -7.6845251402  MEMB      34              0.0000000000
      4530        34  POPC      H8X            -2.3335709213       -9.2331552303       -7.5747113832  MEMB      34              0.0000000000
      4531        34  POPC      H8Y            -1.8930786672       -7.8045930781       -8.5964953036  MEMB      34              0.0000000000
      4532        34  POPC      C39            -1.7919965030       -7.4551685677       -6.4698614740  MEMB      34              0.0000000000
      4533        34  POPC      H9X            -2.8400890669       -7.0737538942       -6.4755702995  MEMB      34              0.0000000000
      4534        34  POPC      H9Y            -1.1227794930       -6.5725843978       -6.5724570906  MEMB      34              0.0000000000
      4535        34  POPC      C310           -1.5504259150       -8.1795616569       -5.1385531600  MEMB      34              0.0000000000
      4536        34  POPC      H10X           -0.6506841211       -8.8244806327       -5.2366839776  MEMB      34              0.0000000000
      4537        34  POPC      H10Y           -2.4262598671       -8.8349096354       -4.9330184801  MEMB      34              0.0000000000
      4538        34  POPC      C311           -1.3261100541       -7.2376509349       -3.9526497501  MEMB      34              0.0000000000
      4539        34  POPC      H11X           -2.1444013083       -6.4868329419       -3.9198799258  MEMB      34              0.0000000000
      4540        34  POPC      H11Y           -0.3762423481       -6.6784208398       -4.1086754957  MEMB      34              0.0000000000
      4541        34  POPC      C312           -1.2441502605       -7.9569887926       -2.5968424156  MEMB      34              0.0000000000
      4542        34  POPC      H12X           -0.3924489439       -7.4863613789       -2.0525124241  MEMB      34              0.0000000000
      4543        34  POPC      H12Y           -0.9928883448       -9.0354110738       -2.7041839231  MEMB      34              0.0000000000
      4544        34  POPC      C313           -2.5252261576       -7.7580116681       -1.7715606255  MEMB      34              0.0000000000
      4545        34  POPC      H13X           -3.2898656204       -8.5143763345       -2.0335627108  MEMB      34              0.0000000000
      4546        34  POPC      H13Y           -2.9491837873       -6.7602814498       -2.0147530401  MEMB      34              0.0000000000
      4547        34  POPC      C314           -2.2830508040       -7.7864747074       -0.2628783172  MEMB      34              0.0000000000
      4548        34  POPC      H14X           -1.2095893968       -7.7244408996       -0.1096115529  MEMB      34              0.0000000000
      4549        34  POPC      H14Y           -2.5510830997       -8.7716468775        0.1214901915  MEMB      34              0.0000000000
      4550        34  POPC      C315           -3.0080261817       -6.6816433281        0.5051788962  MEMB      34              0.0000000000
      4551        34  POPC      H15X           -4.0490289913       -6.6630384459        0.1094986152  MEMB      34              0.0000000000
      4552        34  POPC      H15Y           -2.5698902181       -5.6887209626        0.2632794246  MEMB      34              0.0000000000
      4553        34  POPC      C316           -3.1231308901       -6.8659217069        2.0239622500  MEMB      34              0.0000000000
      4554        34  POPC      H16X           -2.2448488874       -7.1330669565        2.6166249609  MEMB      34              0.0000000000
      4555        34  POPC      H16Y           -3.7717924228       -7.7244169645        2.2414372951  MEMB      34              0.0000000000
      4556        34  POPC      H16Z           -3.5756113935       -5.9425829059        2.4435100735  MEMB      34              0.0000000000
      4557        35  POPC      N              -9.4931193568       -0.2788747882      -19.9383586274  MEMB      35              0.0000000000
      4558        35  POPC      C12            -8.2144260738       -0.5577610951      -20.7292447619  MEMB      35              0.0000000000
      4559        35  POPC      H12A           -8.1553207459        0.0967358387      -21.5953145161  MEMB      35              0.0000000000
      4560        35  POPC      H12B           -8.2393751619       -1.5694454925      -21.1138449984  MEMB      35              0.0000000000
      4561        35  POPC      C13            -9.3448459956       -0.9240107099      -18.5917827820  MEMB      35              0.0000000000
      4562        35  POPC      H13A           -9.0417385592       -1.9574228771      -18.7089546932  MEMB      35              0.0000000000
      4563        35  POPC      H13B           -8.5118570305       -0.4692193626      -18.0367001787  MEMB      35              0.0000000000
      4564        35  POPC      H13C          -10.2384913499       -0.8813441971      -17.9972481687  MEMB      35              0.0000000000
      4565        35  POPC      C14            -9.7358329798        1.1895044518      -19.7422194811  MEMB      35              0.0000000000
      4566        35  POPC      H14A           -9.8622435119        1.7088427897      -20.6877013111  MEMB      35              0.0000000000
      4567        35  POPC      H14B          -10.6121884271        1.3412675539      -19.1279574349  MEMB      35              0.0000000000
      4568        35  POPC      H14C           -8.8693373856        1.6157212648      -19.2231142619  MEMB      35              0.0000000000
      4569        35  POPC      C15           -10.6737398017       -0.8722052925      -20.6133187269  MEMB      35              0.0000000000
      4570        35  POPC      H15A          -11.5216022284       -0.8106007777      -19.9464006252  MEMB      35              0.0000000000
      4571        35  POPC      H15B          -10.4653676853       -1.9059778866      -20.8600008359  MEMB      35              0.0000000000
      4572        35  POPC      H15C          -10.8590789114       -0.3420515204      -21.5412446235  MEMB      35              0.0000000000
      4573        35  POPC      C11            -6.8848617981       -0.5256416803      -19.9298514734  MEMB      35              0.0000000000
      4574        35  POPC      H11A           -6.0018618520       -0.5764779097      -20.6065563370  MEMB      35              0.0000000000
      4575        35  POPC      H11B           -6.8719141673       -1.4699076509      -19.3332384180  MEMB      35              0.0000000000
      4576        35  POPC      P              -5.7133292805        0.5574095011      -17.9280461960  MEMB      35              0.0000000000
      4577        35  POPC      O13            -4.3747670385        0.7738460928      -18.5158988446  MEMB      35              0.0000000000
      4578        35  POPC      O14            -5.9210012692       -0.6944682992      -17.1689455968  MEMB      35              0.0000000000
      4579        35  POPC      O12            -6.8053982797        0.6191555588      -19.0826232038  MEMB      35              0.0000000000
      4580        35  POPC      O11            -6.1413361187        1.7638367928      -17.0118082576  MEMB      35              0.0000000000
      4581        35  POPC      C1             -6.2329947370        3.0658536693      -17.5844109088  MEMB      35              0.0000000000
      4582        35  POPC      HA             -6.9058764694        3.0779310586      -18.4681579934  MEMB      35              0.0000000000
      4583        35  POPC      HB             -5.2235750386        3.4031000667      -17.9220448580  MEMB      35              0.0000000000
      4584        35  POPC      C2             -6.7872469937        4.0762359941      -16.5513305222  MEMB      35              0.0000000000
      4585        35  POPC      HS             -6.6267763073        5.0954295742      -16.8696123857  MEMB      35              0.0000000000
      4586        35  POPC      O21            -6.1083147101        3.8597896385      -15.3099740845  MEMB      35              0.0000000000
      4587        35  POPC      C21            -6.1025847583        4.8936115097      -14.4939413572  MEMB      35              0.0000000000
      4588        35  POPC      O22            -6.8763482453        5.8302135806      -14.5073067216  MEMB      35              0.0000000000
      4589        35  POPC      C22            -5.0817933089        4.6050012064      -13.4145026416  MEMB      35              0.0000000000
      4590        35  POPC      H2R            -4.0859606252        4.9155292001      -13.7712656183  MEMB      35              0.0000000000
      4591        35  POPC      H2S            -5.0652775877        3.5106849522      -13.2429243836  MEMB      35              0.0000000000
      4592        35  POPC      C3             -8.3320994397        3.9661284778      -16.4090027661  MEMB      35              0.0000000000
      4593        35  POPC      HX             -8.7519829635        4.3040616735      -17.3787990949  MEMB      35              0.0000000000
      4594        35  POPC      HY             -8.6861103912        4.7039438917      -15.6496063885  MEMB      35              0.0000000000
      4595        35  POPC      O31            -8.7890339988        2.6212315475      -16.2254146877  MEMB      35              0.0000000000
      4596        35  POPC      C31            -9.3291202703        2.3602451463      -15.0571455257  MEMB      35              0.0000000000
      4597        35  POPC      O32            -9.5662998696        3.1677192312      -14.1827371675  MEMB      35              0.0000000000
      4598        35  POPC      C32            -9.7340826451        0.8994974912      -15.0457182063  MEMB      35              0.0000000000
      4599        35  POPC      H2X            -8.8169458556        0.2906638460      -15.1962674435  MEMB      35              0.0000000000
      4600        35  POPC      H2Y           -10.4028404979        0.7381948071      -15.9151483516  MEMB      35              0.0000000000
      4601        35  POPC      C23            -5.5064054393        5.3701149724      -12.1587180414  MEMB      35              0.0000000000
      4602        35  POPC      H3R            -5.5133918380        6.4532378056      -12.4070782766  MEMB      35              0.0000000000
      4603        35  POPC      H3S            -4.7480822156        5.2056483331      -11.3651017955  MEMB      35              0.0000000000
      4604        35  POPC      C24            -6.9122116377        4.9483754636      -11.6838682678  MEMB      35              0.0000000000
      4605        35  POPC      H4R            -6.9952136282        3.8450196484      -11.7089691326  MEMB      35              0.0000000000
      4606        35  POPC      H4S            -7.6788716338        5.3615589677      -12.3841825669  MEMB      35              0.0000000000
      4607        35  POPC      C25            -7.2933234087        5.4395529421      -10.2903544367  MEMB      35              0.0000000000
      4608        35  POPC      H5R            -6.9440874436        6.4434610098      -10.2174326827  MEMB      35              0.0000000000
      4609        35  POPC      H5S            -6.7630544676        4.8963685412       -9.4920183171  MEMB      35              0.0000000000
      4610        35  POPC      C26            -8.7916548382        5.6314342513      -10.0534390447  MEMB      35              0.0000000000
      4611        35  POPC      H6R            -9.1963865368        6.3135206746      -10.8426872659  MEMB      35              0.0000000000
      4612        35  POPC      H6S            -8.9401944107        6.1466613040       -9.0786157802  MEMB      35              0.0000000000
      4613        35  POPC      C27            -9.5871793868        4.3326059056      -10.1270729079  MEMB      35              0.0000000000
      4614        35  POPC      H7R            -9.5528839788        4.0047037421      -11.1929542601  MEMB      35              0.0000000000
      4615        35  POPC      H7S           -10.6398799176        4.5626056733       -9.8546515594  MEMB      35              0.0000000000
      4616        35  POPC      C28            -9.0745729497        3.1576803961       -9.2718434868  MEMB      35              0.0000000000
      4617        35  POPC      H8R            -8.0376428415        2.9152651644       -9.6020948163  MEMB      35              0.0000000000
      4618        35  POPC      H8S            -9.7019621231        2.2821952302       -9.5470851219  MEMB      35              0.0000000000
      4619        35  POPC      C29            -9.0983596383        3.4449541720       -7.7865874136  MEMB      35              0.0000000000
      4620        35  POPC      H91            -8.2158525407        4.0114098442       -7.4583818301  MEMB      35              0.0000000000
      4621        35  POPC      C210           -9.9870021640        3.0765935678       -6.8349109979  MEMB      35              0.0000000000
      4622        35  POPC      H101           -9.8003698931        3.4170750747       -5.8075194176  MEMB      35              0.0000000000
      4623        35  POPC      C211          -11.2480854441        2.2537875822       -6.9492708409  MEMB      35              0.0000000000
      4624        35  POPC      H11R          -11.3633980434        1.8455114386       -7.9766505854  MEMB      35              0.0000000000
      4625        35  POPC      H11S          -12.1406281428        2.8909471386       -6.7610499330  MEMB      35              0.0000000000
      4626        35  POPC      C212          -11.2779675117        1.0704298419       -5.9488328998  MEMB      35              0.0000000000
      4627        35  POPC      H12R          -10.2799423726        0.5828146171       -5.8916158256  MEMB      35              0.0000000000
      4628        35  POPC      H12S          -11.9875276189        0.3082953639       -6.3425511592  MEMB      35              0.0000000000
      4629        35  POPC      C213          -11.7577028097        1.4220515715       -4.5299198470  MEMB      35              0.0000000000
      4630        35  POPC      H13R          -12.7459117774        1.9257678415       -4.5839400087  MEMB      35              0.0000000000
      4631        35  POPC      H13S          -11.0606661916        2.1327569006       -4.0490851154  MEMB      35              0.0000000000
      4632        35  POPC      C214          -11.9633641687        0.1843365557       -3.6615124518  MEMB      35              0.0000000000
      4633        35  POPC      H14R          -12.4009060174       -0.6111602469       -4.2978485200  MEMB      35              0.0000000000
      4634        35  POPC      H14S          -12.6384762589        0.4325806189       -2.7991615328  MEMB      35              0.0000000000
      4635        35  POPC      C215          -10.7153155715       -0.3872151989       -3.0472197846  MEMB      35              0.0000000000
      4636        35  POPC      H15R          -10.0458821219       -0.8292407976       -3.8132021707  MEMB      35              0.0000000000
      4637        35  POPC      H15S          -10.9874346396       -1.2194638685       -2.3512044984  MEMB      35              0.0000000000
      4638        35  POPC      C216          -10.0131695942        0.7267493433       -2.3018424321  MEMB      35              0.0000000000
      4639        35  POPC      H16R          -10.7591940200        1.3116714927       -1.7112815036  MEMB      35              0.0000000000
      4640        35  POPC      H16S           -9.4547825621        1.3941456516       -2.9922278675  MEMB      35              0.0000000000
      4641        35  POPC      C217           -9.0457898797        0.0996095014       -1.3834848854  MEMB      35              0.0000000000
      4642        35  POPC      H17R           -9.6662795545       -0.5076834845       -0.7246243258  MEMB      35              0.0000000000
      4643        35  POPC      H17S           -8.4890069142        0.8436654864       -0.7937813269  MEMB      35              0.0000000000
      4644        35  POPC      C218           -8.0810489231       -0.8098412554       -2.0698064032  MEMB      35              0.0000000000
      4645        35  POPC      H18R           -8.5048604889       -1.7081028209       -2.5489709992  MEMB      35              0.0000000000
      4646        35  POPC      H18S           -7.4274728156       -1.1433430388       -1.2319683545  MEMB      35              0.0000000000
      4647        35  POPC      H18T           -7.4964235032       -0.2305116191       -2.8151846832  MEMB      35              0.0000000000
      4648        35  POPC      C33           -10.4571564902        0.5107834445      -13.7358843553  MEMB      35              0.0000000000
      4649        35  POPC      H3X           -10.9292450258       -0.4777349257      -13.9107309847  MEMB      35              0.0000000000
      4650        35  POPC      H3Y           -11.2829118152        1.2150370292      -13.4909369564  MEMB      35              0.0000000000
      4651        35  POPC      C34            -9.4697550702        0.3607644720      -12.5640148983  MEMB      35              0.0000000000
      4652        35  POPC      H4X            -9.0218374515        1.3479950322      -12.3037832752  MEMB      35              0.0000000000
      4653        35  POPC      H4Y            -8.6434632532       -0.3037222817      -12.9019899573  MEMB      35              0.0000000000
      4654        35  POPC      C35           -10.0805431202       -0.2657810345      -11.3050452131  MEMB      35              0.0000000000
      4655        35  POPC      H5X           -10.7566440902       -1.0983964187      -11.6008275818  MEMB      35              0.0000000000
      4656        35  POPC      H5Y           -10.6993421464        0.5020174665      -10.7852963413  MEMB      35              0.0000000000
      4657        35  POPC      C36            -9.0251373025       -0.7824227151      -10.3080129288  MEMB      35              0.0000000000
      4658        35  POPC      H6X            -8.1391077806       -0.1112864521      -10.3401940648  MEMB      35              0.0000000000
      4659        35  POPC      H6Y            -8.6905906376       -1.8039040754      -10.6013669679  MEMB      35              0.0000000000
      4660        35  POPC      C37            -9.6133405966       -0.8316515029       -8.8902475421  MEMB      35              0.0000000000
      4661        35  POPC      H7X           -10.4309783298       -1.5865788001       -8.9267822495  MEMB      35              0.0000000000
      4662        35  POPC      H7Y           -10.0722859851        0.1476167340       -8.6348696067  MEMB      35              0.0000000000
      4663        35  POPC      C38            -8.6768799118       -1.2500014504       -7.7471140344  MEMB      35              0.0000000000
      4664        35  POPC      H8X            -8.0434192994       -2.1100449955       -8.0490518120  MEMB      35              0.0000000000
      4665        35  POPC      H8Y            -9.3473333904       -1.5923888656       -6.9225718364  MEMB      35              0.0000000000
      4666        35  POPC      C39            -7.7960825972       -0.1337174429       -7.1774587995  MEMB      35              0.0000000000
      4667        35  POPC      H9X            -8.3879966772        0.7708533265       -6.9310464805  MEMB      35              0.0000000000
      4668        35  POPC      H9Y            -7.0305684694        0.1684259120       -7.9270888800  MEMB      35              0.0000000000
      4669        35  POPC      C310           -7.1271242090       -0.5405296219       -5.8741434485  MEMB      35              0.0000000000
      4670        35  POPC      H10X           -7.7640075704       -1.1081905459       -5.1649789624  MEMB      35              0.0000000000
      4671        35  POPC      H10Y           -6.8274625809        0.3902490768       -5.3382747250  MEMB      35              0.0000000000
      4672        35  POPC      C311           -5.8970223772       -1.3531407723       -6.1251976036  MEMB      35              0.0000000000
      4673        35  POPC      H11X           -5.3891605639       -1.0554537082       -7.0615688070  MEMB      35              0.0000000000
      4674        35  POPC      H11Y           -6.0941749917       -2.4453645770       -6.2187622699  MEMB      35              0.0000000000
      4675        35  POPC      C312           -4.9979639231       -1.0717250067       -4.9616265703  MEMB      35              0.0000000000
      4676        35  POPC      H12X           -4.4167022864       -2.0030558796       -5.1259270214  MEMB      35              0.0000000000
      4677        35  POPC      H12Y           -5.4668068722       -1.1946435746       -3.9763797753  MEMB      35              0.0000000000
      4678        35  POPC      C313           -4.3440738837        0.3528279242       -5.0651590888  MEMB      35              0.0000000000
      4679        35  POPC      H13X           -4.9869882504        1.1888104010       -5.3452435588  MEMB      35              0.0000000000
      4680        35  POPC      H13Y           -3.4708253052        0.2020737451       -5.6487439807  MEMB      35              0.0000000000
      4681        35  POPC      C314           -3.5149832156        0.9567254238       -3.9906709302  MEMB      35              0.0000000000
      4682        35  POPC      H14X           -2.5475263507        1.4957532740       -3.9937802949  MEMB      35              0.0000000000
      4683        35  POPC      H14Y           -3.3140699742       -0.0557720224       -3.8026067003  MEMB      35              0.0000000000
      4684        35  POPC      C315           -4.2636292674        1.2182411363       -2.8505724023  MEMB      35              0.0000000000
      4685        35  POPC      H15X           -3.5497970140        1.3281686541       -2.0550059492  MEMB      35              0.0000000000
      4686        35  POPC      H15Y           -4.7087711946        0.2013234090       -2.7494586670  MEMB      35              0.0000000000
      4687        35  POPC      C316           -5.1806787183        2.3826927828       -2.9703159393  MEMB      35              0.0000000000
      4688        35  POPC      H16X           -6.0037540652        2.1090535091       -3.6467234638  MEMB      35              0.0000000000
      4689        35  POPC      H16Y           -4.5426968660        3.2645412531       -3.1743387649  MEMB      35              0.0000000000
      4690        35  POPC      H16Z           -5.7324895804        2.6330843515       -2.0695268837  MEMB      35              0.0000000000
      4691        36  POPC      N               6.7263027694       -1.0067006508      -17.3165911510  MEMB      36              0.0000000000
      4692        36  POPC      C12             6.2368667477       -2.3254562830      -17.9192507143  MEMB      36              0.0000000000
      4693        36  POPC      H12A            5.3805595000       -2.1472607400      -18.5617585323  MEMB      36              0.0000000000
      4694        36  POPC      H12B            5.8882872770       -2.9835061071      -17.1324368098  MEMB      36              0.0000000000
      4695        36  POPC      C13             7.9982425008       -1.2230007948      -16.5705020636  MEMB      36              0.0000000000
      4696        36  POPC      H13A            8.7354157979       -1.7179178780      -17.2077287984  MEMB      36              0.0000000000
      4697        36  POPC      H13B            8.4225319712       -0.2898621341      -16.2379683698  MEMB      36              0.0000000000
      4698        36  POPC      H13C            7.8308298443       -1.8560121249      -15.7036973894  MEMB      36              0.0000000000
      4699        36  POPC      C14             6.9348730233       -0.0428173521      -18.4339039417  MEMB      36              0.0000000000
      4700        36  POPC      H14A            7.6188033334       -0.4804755101      -19.1697498159  MEMB      36              0.0000000000
      4701        36  POPC      H14B            5.9911945383        0.0622525098      -18.9560095957  MEMB      36              0.0000000000
      4702        36  POPC      H14C            7.2982380263        0.9055639300      -18.0912347858  MEMB      36              0.0000000000
      4703        36  POPC      C15             5.7231123463       -0.4393529047      -16.3876040241  MEMB      36              0.0000000000
      4704        36  POPC      H15A            5.5585815549       -1.1254438499      -15.5629887662  MEMB      36              0.0000000000
      4705        36  POPC      H15B            4.7874548283       -0.2249863025      -16.8859111830  MEMB      36              0.0000000000
      4706        36  POPC      H15C            6.0969398141        0.4818428098      -15.9554474150  MEMB      36              0.0000000000
      4707        36  POPC      C11             7.2414327405       -3.0920552872      -18.8175928851  MEMB      36              0.0000000000
      4708        36  POPC      H11A            6.7493282076       -4.0396541694      -19.1370321150  MEMB      36              0.0000000000
      4709        36  POPC      H11B            8.1458514895       -3.3487679735      -18.2188771704  MEMB      36              0.0000000000
      4710        36  POPC      P               8.8143912585       -2.7138175889      -20.8925154398  MEMB      36              0.0000000000
      4711        36  POPC      O13             8.9556432944       -1.6973937390      -21.9617402772  MEMB      36              0.0000000000
      4712        36  POPC      O14             8.8013053952       -4.1531022686      -21.2220025333  MEMB      36              0.0000000000
      4713        36  POPC      O12             7.5659985972       -2.3374653037      -19.9797127206  MEMB      36              0.0000000000
      4714        36  POPC      O11             9.9581876152       -2.5200506564      -19.8523055083  MEMB      36              0.0000000000
      4715        36  POPC      C1             10.4859896531       -1.2212001713      -19.6480310701  MEMB      36              0.0000000000
      4716        36  POPC      HA              9.7047613784       -0.5498414921      -19.2228923043  MEMB      36              0.0000000000
      4717        36  POPC      HB             10.8905069406       -0.7975837433      -20.5926346664  MEMB      36              0.0000000000
      4718        36  POPC      C2             11.6070659334       -1.2914438041      -18.6235518645  MEMB      36              0.0000000000
      4719        36  POPC      HS             12.4591754088       -1.8841833177      -19.0450364494  MEMB      36              0.0000000000
      4720        36  POPC      O21            11.0068051662       -1.8862425126      -17.4513991662  MEMB      36              0.0000000000
      4721        36  POPC      C21            11.1597500554       -3.1958284104      -17.3364326146  MEMB      36              0.0000000000
      4722        36  POPC      O22            11.7554733290       -3.9145659665      -18.1180258341  MEMB      36              0.0000000000
      4723        36  POPC      C22            10.6160495385       -3.7266964717      -15.9921693880  MEMB      36              0.0000000000
      4724        36  POPC      H2R            10.6307762780       -4.8318996624      -16.1045166419  MEMB      36              0.0000000000
      4725        36  POPC      H2S             9.6009357124       -3.3461516324      -15.8179544396  MEMB      36              0.0000000000
      4726        36  POPC      C3             12.1322701424        0.1437256088      -18.3378352607  MEMB      36              0.0000000000
      4727        36  POPC      HX             12.5029403385        0.5940100140      -19.2586138055  MEMB      36              0.0000000000
      4728        36  POPC      HY             13.0293205003        0.0985899944      -17.6752953689  MEMB      36              0.0000000000
      4729        36  POPC      O31            11.0448515850        0.9877929985      -17.9054875799  MEMB      36              0.0000000000
      4730        36  POPC      C31            11.2577010227        1.5352714302      -16.7196999830  MEMB      36              0.0000000000
      4731        36  POPC      O32            12.3382826491        1.6630524119      -16.1866668128  MEMB      36              0.0000000000
      4732        36  POPC      C32             9.9645854370        2.2068662531      -16.2725730027  MEMB      36              0.0000000000
      4733        36  POPC      H2X             9.0923981356        1.6388537280      -16.6415687315  MEMB      36              0.0000000000
      4734        36  POPC      H2Y             9.9939701900        3.1905775169      -16.7850940559  MEMB      36              0.0000000000
      4735        36  POPC      C23            11.5097737421       -3.3879748097      -14.7800922228  MEMB      36              0.0000000000
      4736        36  POPC      H3R            11.3234731289       -2.3657315870      -14.3861689111  MEMB      36              0.0000000000
      4737        36  POPC      H3S            12.5114768343       -3.4282036440      -15.1944373450  MEMB      36              0.0000000000
      4738        36  POPC      C24            11.6147473424       -4.3671904630      -13.6310424971  MEMB      36              0.0000000000
      4739        36  POPC      H4R            12.4646313229       -4.0542752467      -12.9832175099  MEMB      36              0.0000000000
      4740        36  POPC      H4S            11.8697411350       -5.3703461849      -14.0381855785  MEMB      36              0.0000000000
      4741        36  POPC      C25            10.3378504063       -4.3688429405      -12.7999673732  MEMB      36              0.0000000000
      4742        36  POPC      H5R            10.3041559215       -5.3588420494      -12.2902006877  MEMB      36              0.0000000000
      4743        36  POPC      H5S             9.4652696311       -4.2399639649      -13.4648268733  MEMB      36              0.0000000000
      4744        36  POPC      C26            10.3242467141       -3.3038165794      -11.6986324483  MEMB      36              0.0000000000
      4745        36  POPC      H6R            10.3351738712       -2.2534990382      -12.0613632565  MEMB      36              0.0000000000
      4746        36  POPC      H6S            11.2958274945       -3.4851447441      -11.2832151455  MEMB      36              0.0000000000
      4747        36  POPC      C27             9.3042868868       -3.5830510779      -10.5788286883  MEMB      36              0.0000000000
      4748        36  POPC      H7R             9.0312192412       -4.6584922534      -10.6044806544  MEMB      36              0.0000000000
      4749        36  POPC      H7S             8.4027111484       -2.9974441100      -10.8593155346  MEMB      36              0.0000000000
      4750        36  POPC      C28             9.6960458846       -3.2589683587       -9.1002401652  MEMB      36              0.0000000000
      4751        36  POPC      H8R             8.7249614201       -3.1551277598       -8.5642631881  MEMB      36              0.0000000000
      4752        36  POPC      H8S            10.1209712073       -2.2356350901       -9.0770440678  MEMB      36              0.0000000000
      4753        36  POPC      C29            10.5015227074       -4.3018445408       -8.3186248720  MEMB      36              0.0000000000
      4754        36  POPC      H91            10.0617513706       -5.3049253831       -8.3367012770  MEMB      36              0.0000000000
      4755        36  POPC      C210           11.6347608201       -4.1437416274       -7.5782798606  MEMB      36              0.0000000000
      4756        36  POPC      H101           12.1814346292       -5.0172670011       -7.2066242144  MEMB      36              0.0000000000
      4757        36  POPC      C211           12.3781990432       -2.8675028366       -7.3645870327  MEMB      36              0.0000000000
      4758        36  POPC      H11R           12.1994367835       -2.6025203058       -8.3601036990  MEMB      36              0.0000000000
      4759        36  POPC      H11S           13.4931161364       -2.9165565674       -7.2959231241  MEMB      36              0.0000000000
      4760        36  POPC      C212           11.7797832356       -1.5971510451       -6.7746134661  MEMB      36              0.0000000000
      4761        36  POPC      H12R           10.8456735808       -1.3451304294       -7.3209719187  MEMB      36              0.0000000000
      4762        36  POPC      H12S           12.4121070462       -0.6946395271       -6.8590389203  MEMB      36              0.0000000000
      4763        36  POPC      C213           11.5722545037       -1.7660674835       -5.3161785168  MEMB      36              0.0000000000
      4764        36  POPC      H13R           10.9598986447       -2.6818084158       -5.1843964538  MEMB      36              0.0000000000
      4765        36  POPC      H13S           10.9774112087       -0.8762412687       -5.0417209221  MEMB      36              0.0000000000
      4766        36  POPC      C214           12.8911349584       -1.8741185991       -4.5438481240  MEMB      36              0.0000000000
      4767        36  POPC      H14R           13.4745759514       -0.9262354173       -4.5954126350  MEMB      36              0.0000000000
      4768        36  POPC      H14S           13.5451270433       -2.6608189093       -4.9910937231  MEMB      36              0.0000000000
      4769        36  POPC      C215           12.6113315046       -2.3236496890       -3.1120049310  MEMB      36              0.0000000000
      4770        36  POPC      H15R           13.5787071466       -2.5482106582       -2.6130382406  MEMB      36              0.0000000000
      4771        36  POPC      H15S           12.0313468684       -3.2739032941       -3.1928136056  MEMB      36              0.0000000000
      4772        36  POPC      C216           11.7657821457       -1.3732313871       -2.2491869451  MEMB      36              0.0000000000
      4773        36  POPC      H16R           12.0630542273       -1.5482745971       -1.1893869600  MEMB      36              0.0000000000
      4774        36  POPC      H16S           10.6942971606       -1.6600944154       -2.3268492652  MEMB      36              0.0000000000
      4775        36  POPC      C217           11.8614072781        0.1155742705       -2.6189634501  MEMB      36              0.0000000000
      4776        36  POPC      H17R           11.4692617693        0.2957588422       -3.6329297105  MEMB      36              0.0000000000
      4777        36  POPC      H17S           12.9352559794        0.4042118925       -2.6874575913  MEMB      36              0.0000000000
      4778        36  POPC      C218           11.0542078598        1.0328648376       -1.6864560298  MEMB      36              0.0000000000
      4779        36  POPC      H18R           11.1122434905        2.0806011400       -2.0479326206  MEMB      36              0.0000000000
      4780        36  POPC      H18S           11.4015927420        1.0361610379       -0.6493142549  MEMB      36              0.0000000000
      4781        36  POPC      H18T           10.0129172842        0.6859982211       -1.5711881741  MEMB      36              0.0000000000
      4782        36  POPC      C33             9.8577829826        2.4512799146      -14.7443273981  MEMB      36              0.0000000000
      4783        36  POPC      H3X             9.1253057546        3.2815336554      -14.6089430569  MEMB      36              0.0000000000
      4784        36  POPC      H3Y            10.8231734117        2.7899369781      -14.3056172164  MEMB      36              0.0000000000
      4785        36  POPC      C34             9.2971415563        1.2643366762      -13.9434216244  MEMB      36              0.0000000000
      4786        36  POPC      H4X             9.9411986856        0.3654151167      -14.0718255738  MEMB      36              0.0000000000
      4787        36  POPC      H4Y             8.2790812538        1.0439185951      -14.3348301752  MEMB      36              0.0000000000
      4788        36  POPC      C35             9.1622747105        1.5729615869      -12.4381246948  MEMB      36              0.0000000000
      4789        36  POPC      H5X             8.6422178641        2.5511874438      -12.3210017764  MEMB      36              0.0000000000
      4790        36  POPC      H5Y            10.1764414706        1.6843626263      -11.9914817580  MEMB      36              0.0000000000
      4791        36  POPC      C36             8.3711287515        0.5085942259      -11.6501427805  MEMB      36              0.0000000000
      4792        36  POPC      H6X             9.0587135447       -0.0669554191      -10.9929921469  MEMB      36              0.0000000000
      4793        36  POPC      H6Y             7.9399669286       -0.2255292522      -12.3671881766  MEMB      36              0.0000000000
      4794        36  POPC      C37             7.2183447920        1.0702111375      -10.7824218663  MEMB      36              0.0000000000
      4795        36  POPC      H7X             6.6822486630        0.2114272863      -10.3205280718  MEMB      36              0.0000000000
      4796        36  POPC      H7Y             6.4822781951        1.5929641673      -11.4346632132  MEMB      36              0.0000000000
      4797        36  POPC      C38             7.6404886551        2.0160340491       -9.6384752963  MEMB      36              0.0000000000
      4798        36  POPC      H8X             6.7319751118        2.4051347800       -9.1207444048  MEMB      36              0.0000000000
      4799        36  POPC      H8Y             8.1742482307        2.8975566879      -10.0449657872  MEMB      36              0.0000000000
      4800        36  POPC      C39             8.5128435194        1.3707364807       -8.5542446755  MEMB      36              0.0000000000
      4801        36  POPC      H9X             8.9282184074        2.2033051319       -7.9418276270  MEMB      36              0.0000000000
      4802        36  POPC      H9Y             9.3754362977        0.8251613942       -8.9939903007  MEMB      36              0.0000000000
      4803        36  POPC      C310            7.6955030000        0.4341132061       -7.6564861717  MEMB      36              0.0000000000
      4804        36  POPC      H10X            7.5443724484       -0.5329113565       -8.1843842902  MEMB      36              0.0000000000
      4805        36  POPC      H10Y            6.6928518474        0.8816584041       -7.4658070709  MEMB      36              0.0000000000
      4806        36  POPC      C311            8.3614616336        0.1610392527       -6.3104027932  MEMB      36              0.0000000000
      4807        36  POPC      H11X            8.4246345763        1.1123995701       -5.7343878103  MEMB      36              0.0000000000
      4808        36  POPC      H11Y            9.3977950424       -0.1790249628       -6.4904226298  MEMB      36              0.0000000000
      4809        36  POPC      C312            7.6148216851       -0.8931494920       -5.4851369903  MEMB      36              0.0000000000
      4810        36  POPC      H12X            7.7839520930       -1.9163251027       -5.8859124085  MEMB      36              0.0000000000
      4811        36  POPC      H12Y            6.5272068345       -0.6970603045       -5.5864543310  MEMB      36              0.0000000000
      4812        36  POPC      C313            8.0456364792       -0.8251383108       -4.0167193363  MEMB      36              0.0000000000
      4813        36  POPC      H13X            8.1391839793        0.2446257114       -3.7210517392  MEMB      36              0.0000000000
      4814        36  POPC      H13Y            9.0153166043       -1.3397269640       -3.8655564974  MEMB      36              0.0000000000
      4815        36  POPC      C314            7.0783306930       -1.4546541144       -3.0640364626  MEMB      36              0.0000000000
      4816        36  POPC      H14X            7.3834227959       -1.3104653127       -1.9957303909  MEMB      36              0.0000000000
      4817        36  POPC      H14Y            6.9422015167       -2.5491639941       -3.2381218399  MEMB      36              0.0000000000
      4818        36  POPC      C315            5.7372032868       -0.8715976814       -3.1589435705  MEMB      36              0.0000000000
      4819        36  POPC      H15X            5.2064943140       -0.8901549390       -4.1460654822  MEMB      36              0.0000000000
      4820        36  POPC      H15Y            5.6768704581        0.1917374806       -2.7991640513  MEMB      36              0.0000000000
      4821        36  POPC      C316            5.0794005126       -1.8110791240       -2.2057857125  MEMB      36              0.0000000000
      4822        36  POPC      H16X            4.2251096803       -1.3853029543       -2.5814529048  MEMB      36              0.0000000000
      4823        36  POPC      H16Y            5.2299909931       -1.5497879578       -1.1473816467  MEMB      36              0.0000000000
      4824        36  POPC      H16Z            4.7126296034       -2.8305596594       -2.3797523975  MEMB      36              0.0000000000
      4825        37  POPC      N              -6.6147735352        9.6839700690      -20.6642847665  MEMB      37              0.0000000000
      4826        37  POPC      C12            -7.2412396664        8.3681736510      -20.2019199186  MEMB      37              0.0000000000
      4827        37  POPC      H12A           -6.5218320935        7.5522235675      -20.3203378541  MEMB      37              0.0000000000
      4828        37  POPC      H12B           -8.0636752208        8.1413822315      -20.8618557849  MEMB      37              0.0000000000
      4829        37  POPC      C13            -6.3781017741        9.6344404414      -22.1279346398  MEMB      37              0.0000000000
      4830        37  POPC      H13A           -5.5503458009        8.9707235456      -22.3568315989  MEMB      37              0.0000000000
      4831        37  POPC      H13B           -7.2537602280        9.2515718509      -22.6411268735  MEMB      37              0.0000000000
      4832        37  POPC      H13C           -6.1594924933       10.6096877687      -22.5364460783  MEMB      37              0.0000000000
      4833        37  POPC      C14            -7.5637182901       10.7927220008      -20.3583371121  MEMB      37              0.0000000000
      4834        37  POPC      H14A           -8.4158874574       10.7360147914      -21.0101096445  MEMB      37              0.0000000000
      4835        37  POPC      H14B           -7.8680531270       10.7175518324      -19.3202182297  MEMB      37              0.0000000000
      4836        37  POPC      H14C           -7.1273416867       11.7780626066      -20.4956876013  MEMB      37              0.0000000000
      4837        37  POPC      C15            -5.3196157933        9.9510710274      -19.9684256892  MEMB      37              0.0000000000
      4838        37  POPC      H15A           -4.7802344189       10.7406878493      -20.4447925995  MEMB      37              0.0000000000
      4839        37  POPC      H15B           -4.6951835489        9.0517839642      -19.8819945562  MEMB      37              0.0000000000
      4840        37  POPC      H15C           -5.5258351638       10.1862735292      -18.9284294925  MEMB      37              0.0000000000
      4841        37  POPC      C11            -7.7737568337        8.3044915606      -18.7493441434  MEMB      37              0.0000000000
      4842        37  POPC      H11A           -8.2433691814        7.3117046447      -18.5422319775  MEMB      37              0.0000000000
      4843        37  POPC      H11B           -8.5705813455        9.0544840654      -18.5821778972  MEMB      37              0.0000000000
      4844        37  POPC      P              -5.5961158260        7.4862586260      -17.6445440829  MEMB      37              0.0000000000
      4845        37  POPC      O13            -4.3062485921        8.0782894396      -18.0340164915  MEMB      37              0.0000000000
      4846        37  POPC      O14            -6.0551850951        6.3225277349      -18.4334544292  MEMB      37              0.0000000000
      4847        37  POPC      O12            -6.7173383150        8.5787700301      -17.8463607212  MEMB      37              0.0000000000
      4848        37  POPC      O11            -5.7248264189        7.3777644067      -16.0824321716  MEMB      37              0.0000000000
      4849        37  POPC      C1             -5.6616377450        8.5275534483      -15.2221926364  MEMB      37              0.0000000000
      4850        37  POPC      HA             -6.1606797077        8.3251331035      -14.2435927063  MEMB      37              0.0000000000
      4851        37  POPC      HB             -6.2045213416        9.4046299555      -15.6450590482  MEMB      37              0.0000000000
      4852        37  POPC      C2             -4.1824667295        8.8739272113      -14.9471203402  MEMB      37              0.0000000000
      4853        37  POPC      HS             -3.6503691690        8.7812041002      -15.9236203088  MEMB      37              0.0000000000
      4854        37  POPC      O21            -3.6870356104        7.9815470050      -13.9291030432  MEMB      37              0.0000000000
      4855        37  POPC      C21            -2.5344412945        7.4160670876      -14.2507962613  MEMB      37              0.0000000000
      4856        37  POPC      O22            -1.8622673599        7.7008987513      -15.2234844294  MEMB      37              0.0000000000
      4857        37  POPC      C22            -2.0939957511        6.4937617497      -13.1117503316  MEMB      37              0.0000000000
      4858        37  POPC      H2R            -2.2334798259        5.4358220477      -13.3559910003  MEMB      37              0.0000000000
      4859        37  POPC      H2S            -2.6862592092        6.7754068291      -12.2122953342  MEMB      37              0.0000000000
      4860        37  POPC      C3             -4.0406527987       10.3604569624      -14.5320671171  MEMB      37              0.0000000000
      4861        37  POPC      HX             -4.5067311756       10.8470756177      -15.4089747682  MEMB      37              0.0000000000
      4862        37  POPC      HY             -2.9849975783       10.7105976069      -14.4916805714  MEMB      37              0.0000000000
      4863        37  POPC      O31            -4.8173394656       10.7333269646      -13.3823329513  MEMB      37              0.0000000000
      4864        37  POPC      C31            -4.1639719838       10.6666341268      -12.2302797990  MEMB      37              0.0000000000
      4865        37  POPC      O32            -2.9956651186       10.3810757145      -12.0977759328  MEMB      37              0.0000000000
      4866        37  POPC      C32            -5.1361494694       10.9275112363      -11.1124295868  MEMB      37              0.0000000000
      4867        37  POPC      H2X            -5.9208116733       11.6182399686      -11.4513860373  MEMB      37              0.0000000000
      4868        37  POPC      H2Y            -4.6386242358       11.2382532027      -10.1685284456  MEMB      37              0.0000000000
      4869        37  POPC      C23            -0.6249652370        6.7502161527      -12.8639404532  MEMB      37              0.0000000000
      4870        37  POPC      H3R             0.0016848483        6.7576231126      -13.7912325860  MEMB      37              0.0000000000
      4871        37  POPC      H3S            -0.0418506444        6.2251846383      -12.0927179953  MEMB      37              0.0000000000
      4872        37  POPC      C24            -0.6290303933        8.0117769377      -12.1284442373  MEMB      37              0.0000000000
      4873        37  POPC      H4R            -1.3547542586        8.7212352443      -12.5631246783  MEMB      37              0.0000000000
      4874        37  POPC      H4S             0.3877761052        8.2924775517      -12.4605528389  MEMB      37              0.0000000000
      4875        37  POPC      C25            -0.8968452798        7.8693620801      -10.6149647669  MEMB      37              0.0000000000
      4876        37  POPC      H5R             0.0013179409        7.3903563833      -10.1440375992  MEMB      37              0.0000000000
      4877        37  POPC      H5S            -1.7858933600        7.2610947290      -10.3989290254  MEMB      37              0.0000000000
      4878        37  POPC      C26            -1.2696357194        9.1988831611       -9.9798903497  MEMB      37              0.0000000000
      4879        37  POPC      H6R            -2.0524356025        9.8866107475      -10.2475283037  MEMB      37              0.0000000000
      4880        37  POPC      H6S            -0.5836148216        9.7290085422      -10.5183362440  MEMB      37              0.0000000000
      4881        37  POPC      C27            -0.9883370060        9.4087412548       -8.5561445579  MEMB      37              0.0000000000
      4882        37  POPC      H7R            -0.2503302943        8.6795642840       -8.2526450567  MEMB      37              0.0000000000
      4883        37  POPC      H7S            -1.6843083228        8.7761163011       -7.9838027554  MEMB      37              0.0000000000
      4884        37  POPC      C28            -0.7659451870       10.9297689944       -8.1075265359  MEMB      37              0.0000000000
      4885        37  POPC      H8R            -0.3358238807       11.7910619482       -8.6576340281  MEMB      37              0.0000000000
      4886        37  POPC      H8S             0.0797727842       11.1505955518       -7.4389360990  MEMB      37              0.0000000000
      4887        37  POPC      C29            -2.1065892768       11.1001316915       -7.5527275377  MEMB      37              0.0000000000
      4888        37  POPC      H91            -2.5172679475       11.9722772476       -8.0791932183  MEMB      37              0.0000000000
      4889        37  POPC      C210           -2.7395032072       10.4130031303       -6.5274649488  MEMB      37              0.0000000000
      4890        37  POPC      H101           -3.5390246559       11.0876869244       -6.2040139802  MEMB      37              0.0000000000
      4891        37  POPC      C211           -2.3349825123        9.2055556912       -5.4972733971  MEMB      37              0.0000000000
      4892        37  POPC      H11R           -2.0053946506        9.3422455353       -4.4468148013  MEMB      37              0.0000000000
      4893        37  POPC      H11S           -1.3746104192        9.1287370315       -5.0338426112  MEMB      37              0.0000000000
      4894        37  POPC      C212           -2.9510595825        8.0792395311       -4.7978409200  MEMB      37              0.0000000000
      4895        37  POPC      H12R           -2.1193101324        7.4283015039       -4.3767491538  MEMB      37              0.0000000000
      4896        37  POPC      H12S           -3.3141886461        7.7088000971       -5.7574342936  MEMB      37              0.0000000000
      4897        37  POPC      C213           -3.7730258195        8.7580545890       -3.6781073168  MEMB      37              0.0000000000
      4898        37  POPC      H13R           -4.4205732545        7.9202668354       -3.4262073011  MEMB      37              0.0000000000
      4899        37  POPC      H13S           -4.3250091280        9.6171771437       -4.1419662289  MEMB      37              0.0000000000
      4900        37  POPC      C214           -3.1410052395        9.3340070228       -2.3436404373  MEMB      37              0.0000000000
      4901        37  POPC      H14R           -3.9376217874        9.0308015703       -1.6510636065  MEMB      37              0.0000000000
      4902        37  POPC      H14S           -3.2876845313       10.4254845674       -2.2361051045  MEMB      37              0.0000000000
      4903        37  POPC      C215           -1.7020537146        8.9270337760       -1.8186218784  MEMB      37              0.0000000000
      4904        37  POPC      H15R           -0.8306468774        9.1726987088       -2.4475076092  MEMB      37              0.0000000000
      4905        37  POPC      H15S           -1.7287307091        7.8405328269       -1.5966233803  MEMB      37              0.0000000000
      4906        37  POPC      C216           -1.2733856214        9.6571322887       -0.5268159476  MEMB      37              0.0000000000
      4907        37  POPC      H16R           -0.8010676934        9.0645806802        0.2807180118  MEMB      37              0.0000000000
      4908        37  POPC      H16S           -2.3077517388        9.9196299791       -0.3403934428  MEMB      37              0.0000000000
      4909        37  POPC      C217           -0.4722852086       10.9249813032       -0.6271122972  MEMB      37              0.0000000000
      4910        37  POPC      H17R           -1.2240647617       11.5602998923       -1.1266905805  MEMB      37              0.0000000000
      4911        37  POPC      H17S            0.4645701368       10.7587918523       -1.2012062170  MEMB      37              0.0000000000
      4912        37  POPC      C218           -0.1970514107       11.8228182331        0.5451901292  MEMB      37              0.0000000000
      4913        37  POPC      H18R            0.7670738175       12.3449913536        0.4237214515  MEMB      37              0.0000000000
      4914        37  POPC      H18S           -0.2196407653       11.2947444698        1.5071717466  MEMB      37              0.0000000000
      4915        37  POPC      H18T           -0.9647081191       12.6404678017        0.5090464372  MEMB      37              0.0000000000
      4916        37  POPC      C33            -6.0740743919        9.7715062592      -11.0193656744  MEMB      37              0.0000000000
      4917        37  POPC      H3X            -6.5228899906        9.6013292040      -12.0327440526  MEMB      37              0.0000000000
      4918        37  POPC      H3Y            -6.9315357946       10.0361495356      -10.3622711844  MEMB      37              0.0000000000
      4919        37  POPC      C34            -5.3825694789        8.5073211979      -10.5854715350  MEMB      37              0.0000000000
      4920        37  POPC      H4X            -4.9137333699        8.0369124751      -11.4753396716  MEMB      37              0.0000000000
      4921        37  POPC      H4Y            -6.2770864043        8.0212626397      -10.2412603455  MEMB      37              0.0000000000
      4922        37  POPC      C35            -4.3864118941        8.4653129141       -9.4353529732  MEMB      37              0.0000000000
      4923        37  POPC      H5X            -3.6641601678        9.2756813377       -9.5549292800  MEMB      37              0.0000000000
      4924        37  POPC      H5Y            -3.8231535363        7.5011599131       -9.5264926286  MEMB      37              0.0000000000
      4925        37  POPC      C36            -4.9729827900        8.4635387130       -8.0207428884  MEMB      37              0.0000000000
      4926        37  POPC      H6X            -4.1471953245        8.6719225310       -7.3294675941  MEMB      37              0.0000000000
      4927        37  POPC      H6Y            -5.3061210203        7.4321015596       -7.7894824244  MEMB      37              0.0000000000
      4928        37  POPC      C37            -6.1151028228        9.4371991367       -7.7123071814  MEMB      37              0.0000000000
      4929        37  POPC      H7X            -6.9370184867        9.2473704532       -8.4307259004  MEMB      37              0.0000000000
      4930        37  POPC      H7Y            -5.7715826669       10.4882532370       -7.8443152460  MEMB      37              0.0000000000
      4931        37  POPC      C38            -6.6534325419        9.2203506506       -6.2865135257  MEMB      37              0.0000000000
      4932        37  POPC      H8X            -5.7892963715        9.1294133899       -5.5969044503  MEMB      37              0.0000000000
      4933        37  POPC      H8Y            -7.1946408863        8.2479069283       -6.2556302222  MEMB      37              0.0000000000
      4934        37  POPC      C39            -7.6083861180       10.3200031099       -5.7991196152  MEMB      37              0.0000000000
      4935        37  POPC      H9X            -8.6200409007       10.1188950496       -6.2170414384  MEMB      37              0.0000000000
      4936        37  POPC      H9Y            -7.2761483308       11.3181215668       -6.1594968535  MEMB      37              0.0000000000
      4937        37  POPC      C310           -7.7535593127       10.4352353080       -4.2813517812  MEMB      37              0.0000000000
      4938        37  POPC      H10X           -8.6574776060       11.0596202996       -4.0852040705  MEMB      37              0.0000000000
      4939        37  POPC      H10Y           -6.8821485391       10.9665325945       -3.8382120013  MEMB      37              0.0000000000
      4940        37  POPC      C311           -7.9171584092        9.1179112408       -3.5466772979  MEMB      37              0.0000000000
      4941        37  POPC      H11X           -6.9495642985        8.5713799159       -3.4734248569  MEMB      37              0.0000000000
      4942        37  POPC      H11Y           -8.6515153090        8.4373660248       -4.0386514960  MEMB      37              0.0000000000
      4943        37  POPC      C312           -8.4324184674        9.4154908953       -2.1580389133  MEMB      37              0.0000000000
      4944        37  POPC      H12X           -9.3352264417       10.0693137907       -2.1931360127  MEMB      37              0.0000000000
      4945        37  POPC      H12Y           -7.6620453709        9.9159192872       -1.5332793649  MEMB      37              0.0000000000
      4946        37  POPC      C313           -8.8685068788        8.1390189375       -1.5216663142  MEMB      37              0.0000000000
      4947        37  POPC      H13X           -9.6934777099        7.6824700241       -2.1217965446  MEMB      37              0.0000000000
      4948        37  POPC      H13Y           -9.2738183684        8.4731374918       -0.5376733967  MEMB      37              0.0000000000
      4949        37  POPC      C314           -7.7804333341        7.0775626126       -1.3877880214  MEMB      37              0.0000000000
      4950        37  POPC      H14X           -7.3193274995        6.8385542585       -2.3604002100  MEMB      37              0.0000000000
      4951        37  POPC      H14Y           -8.1382386914        6.0667511388       -1.1732013030  MEMB      37              0.0000000000
      4952        37  POPC      C315           -6.7117252272        7.4536554786       -0.3920518551  MEMB      37              0.0000000000
      4953        37  POPC      H15X           -6.9748278161        7.3163640269        0.6838293199  MEMB      37              0.0000000000
      4954        37  POPC      H15Y           -6.5175474826        8.5390078541       -0.4515184483  MEMB      37              0.0000000000
      4955        37  POPC      C316           -5.4875984756        6.6640891346       -0.8126955291  MEMB      37              0.0000000000
      4956        37  POPC      H16X           -5.2145112166        6.9181995430       -1.8470819090  MEMB      37              0.0000000000
      4957        37  POPC      H16Y           -5.5254020274        5.5635586336       -0.7244896819  MEMB      37              0.0000000000
      4958        37  POPC      H16Z           -4.7001006373        6.9608475445       -0.1612665245  MEMB      37              0.0000000000
      4959        38  POPC      N               8.1711255125        4.5098302722      -19.1578030066  MEMB      38              0.0000000000
      4960        38  POPC      C12             9.5474186537        4.8952462806      -19.6798752681  MEMB      38              0.0000000000
      4961        38  POPC      H12A            9.7781451773        4.3465573988      -20.5834745432  MEMB      38              0.0000000000
      4962        38  POPC      H12B           10.2975580140        4.6632326231      -18.9291791071  MEMB      38              0.0000000000
      4963        38  POPC      C13             8.0250434626        4.9013076417      -17.7082628567  MEMB      38              0.0000000000
      4964        38  POPC      H13A            7.0856269592        4.6093524146      -17.2639376511  MEMB      38              0.0000000000
      4965        38  POPC      H13B            8.8531128559        4.5750930149      -17.0900118649  MEMB      38              0.0000000000
      4966        38  POPC      H13C            8.0933764225        5.9963139842      -17.6639473473  MEMB      38              0.0000000000
      4967        38  POPC      C14             7.1338938259        5.2823214777      -19.9120070334  MEMB      38              0.0000000000
      4968        38  POPC      H14A            7.2485458436        6.3310178880      -19.6361863209  MEMB      38              0.0000000000
      4969        38  POPC      H14B            7.3193077337        5.2041296971      -20.9749957442  MEMB      38              0.0000000000
      4970        38  POPC      H14C            6.1286676909        4.9646640096      -19.6827189052  MEMB      38              0.0000000000
      4971        38  POPC      C15             7.9380668976        3.0784473367      -19.4154934092  MEMB      38              0.0000000000
      4972        38  POPC      H15A            8.0268024115        2.8757873202      -20.4859510454  MEMB      38              0.0000000000
      4973        38  POPC      H15B            6.9243381928        2.8391400841      -19.1443137492  MEMB      38              0.0000000000
      4974        38  POPC      H15C            8.6422947265        2.4514919384      -18.8827613743  MEMB      38              0.0000000000
      4975        38  POPC      C11             9.7173350175        6.3730159630      -20.0283247323  MEMB      38              0.0000000000
      4976        38  POPC      H11A            9.0298455671        6.6719412627      -20.8475328883  MEMB      38              0.0000000000
      4977        38  POPC      H11B           10.7486064776        6.5427033782      -20.4119353946  MEMB      38              0.0000000000
      4978        38  POPC      P              10.2169970255        8.4708989297      -18.6253222825  MEMB      38              0.0000000000
      4979        38  POPC      O13            10.1031528227        9.3195188959      -19.8304505242  MEMB      38              0.0000000000
      4980        38  POPC      O14            11.5611371391        8.2357639504      -18.0785107519  MEMB      38              0.0000000000
      4981        38  POPC      O12             9.4606054763        7.1125000113      -18.8533897926  MEMB      38              0.0000000000
      4982        38  POPC      O11             9.3024869345        9.1418086556      -17.5444595896  MEMB      38              0.0000000000
      4983        38  POPC      C1              7.9389044060        8.7662137430      -17.4218975955  MEMB      38              0.0000000000
      4984        38  POPC      HA              7.8732282502        7.6948342736      -17.1355069708  MEMB      38              0.0000000000
      4985        38  POPC      HB              7.3732767852        8.9466965882      -18.3594136247  MEMB      38              0.0000000000
      4986        38  POPC      C2              7.3123385712        9.5345840181      -16.2597769168  MEMB      38              0.0000000000
      4987        38  POPC      HS              7.2640341421       10.6169155027      -16.5469070915  MEMB      38              0.0000000000
      4988        38  POPC      O21             8.2204344325        9.2899983294      -15.1590743827  MEMB      38              0.0000000000
      4989        38  POPC      C21             8.0403046879       10.1617982158      -14.2139017194  MEMB      38              0.0000000000
      4990        38  POPC      O22             7.1764098610       11.0001730614      -14.2250472809  MEMB      38              0.0000000000
      4991        38  POPC      C22             9.1988759403       10.1713613380      -13.2767301499  MEMB      38              0.0000000000
      4992        38  POPC      H2R             9.5420422745        9.1302647954      -13.1011793882  MEMB      38              0.0000000000
      4993        38  POPC      H2S             8.9236738870       10.6195216481      -12.2979784269  MEMB      38              0.0000000000
      4994        38  POPC      C3              5.8649975786        9.0436372575      -15.9755597740  MEMB      38              0.0000000000
      4995        38  POPC      HX              5.3234350204        9.0133138232      -16.9495475459  MEMB      38              0.0000000000
      4996        38  POPC      HY              5.3182602400        9.7600914640      -15.3137682378  MEMB      38              0.0000000000
      4997        38  POPC      O31             5.9804427839        7.7212428114      -15.4266103624  MEMB      38              0.0000000000
      4998        38  POPC      C31             4.9951115250        7.2949215906      -14.6557462399  MEMB      38              0.0000000000
      4999        38  POPC      O32             3.9470822796        7.8513417662      -14.4312174223  MEMB      38              0.0000000000
      5000        38  POPC      C32             5.3723103592        5.9387395762      -14.0690208671  MEMB      38              0.0000000000
      5001        38  POPC      H2X             6.1929581975        5.5055309797      -14.6760504149  MEMB      38              0.0000000000
      5002        38  POPC      H2Y             4.4877952187        5.2735845662      -14.1358625997  MEMB      38              0.0000000000
      5003        38  POPC      C23            10.2222026966       11.0650196906      -13.9846883801  MEMB      38              0.0000000000
      5004        38  POPC      H3R             9.9151251631       12.1309582236      -14.0225845583  MEMB      38              0.0000000000
      5005        38  POPC      H3S            10.4262414148       10.6935337799      -15.0211823324  MEMB      38              0.0000000000
      5006        38  POPC      C24            11.5026105138       10.9926775524      -13.2377234153  MEMB      38              0.0000000000
      5007        38  POPC      H4R            12.2792327930       10.7167326452      -13.9763502414  MEMB      38              0.0000000000
      5008        38  POPC      H4S            11.4419669526       10.0421264901      -12.6618122282  MEMB      38              0.0000000000
      5009        38  POPC      C25            11.8223975897       12.2687508880      -12.3815515894  MEMB      38              0.0000000000
      5010        38  POPC      H5R            11.7140645452       13.1908379459      -12.9774960099  MEMB      38              0.0000000000
      5011        38  POPC      H5S            12.8650358839       12.4285434746      -12.0778564854  MEMB      38              0.0000000000
      5012        38  POPC      C26            11.2152997690       12.2919533230      -10.9655978696  MEMB      38              0.0000000000
      5013        38  POPC      H6R            10.1832921599       12.2033487658      -11.2890683618  MEMB      38              0.0000000000
      5014        38  POPC      H6S            11.4655206604       13.2170179110      -10.4107615246  MEMB      38              0.0000000000
      5015        38  POPC      C27            11.2268667030       11.2308089087       -9.8531395324  MEMB      38              0.0000000000
      5016        38  POPC      H7R            12.2539500446       10.9253614113       -9.6463642736  MEMB      38              0.0000000000
      5017        38  POPC      H7S            10.5780859523       10.3806302413      -10.1600377085  MEMB      38              0.0000000000
      5018        38  POPC      C28            10.8165373329       11.7745530334       -8.4689972811  MEMB      38              0.0000000000
      5019        38  POPC      H8R             9.7500835219       11.9909172193       -8.5178224142  MEMB      38              0.0000000000
      5020        38  POPC      H8S            11.3090947659       12.7499736689       -8.2669389262  MEMB      38              0.0000000000
      5021        38  POPC      C29            11.0741544882       10.8005340424       -7.3558486542  MEMB      38              0.0000000000
      5022        38  POPC      H91            12.1261341523       10.6658868395       -7.0623914047  MEMB      38              0.0000000000
      5023        38  POPC      C210           10.1235439390       10.0844830949       -6.7380041211  MEMB      38              0.0000000000
      5024        38  POPC      H101           10.4017188702        9.4888722716       -5.8659517872  MEMB      38              0.0000000000
      5025        38  POPC      C211            8.6418414951       10.1181077034       -7.0267299049  MEMB      38              0.0000000000
      5026        38  POPC      H11R            8.1075573260        9.1698148185       -6.8316772356  MEMB      38              0.0000000000
      5027        38  POPC      H11S            8.4177020673       10.4446484177       -8.0644289025  MEMB      38              0.0000000000
      5028        38  POPC      C212            8.0137280069       11.1107725388       -6.0938918639  MEMB      38              0.0000000000
      5029        38  POPC      H12R            7.1039818881       11.5311746604       -6.5610240584  MEMB      38              0.0000000000
      5030        38  POPC      H12S            8.6875487386       11.9452045719       -6.1013514068  MEMB      38              0.0000000000
      5031        38  POPC      C213            7.7562868096       10.6066456023       -4.6829297074  MEMB      38              0.0000000000
      5032        38  POPC      H13R            7.2805786255        9.6139381091       -4.6883084667  MEMB      38              0.0000000000
      5033        38  POPC      H13S            7.0397643670       11.2978570258       -4.1939647005  MEMB      38              0.0000000000
      5034        38  POPC      C214            8.9030142947       10.4998768076       -3.7525903071  MEMB      38              0.0000000000
      5035        38  POPC      H14R            9.4536208326       11.4103856816       -3.8507294597  MEMB      38              0.0000000000
      5036        38  POPC      H14S            9.6689338718        9.8191570789       -4.1074386639  MEMB      38              0.0000000000
      5037        38  POPC      C215            8.3846718971       10.1730559349       -2.3564580196  MEMB      38              0.0000000000
      5038        38  POPC      H15R            8.2898873994        9.0665578244       -2.3625685740  MEMB      38              0.0000000000
      5039        38  POPC      H15S            7.4194720253       10.6502095972       -2.0868029049  MEMB      38              0.0000000000
      5040        38  POPC      C216            9.3283626455       10.6429894690       -1.2981978623  MEMB      38              0.0000000000
      5041        38  POPC      H16R            9.1497148098       11.6716320311       -0.9595542631  MEMB      38              0.0000000000
      5042        38  POPC      H16S           10.3339194913       10.5575535699       -1.7598355277  MEMB      38              0.0000000000
      5043        38  POPC      C217            9.1390175825       10.0501602002        0.0397397802  MEMB      38              0.0000000000
      5044        38  POPC      H17R            9.8486690412       10.5621341332        0.7456761088  MEMB      38              0.0000000000
      5045        38  POPC      H17S            9.3454514304        8.9737832559       -0.0933068731  MEMB      38              0.0000000000
      5046        38  POPC      C218            7.7797641163       10.2435434513        0.5962257896  MEMB      38              0.0000000000
      5047        38  POPC      H18R            7.0828518592        9.5308858446        0.1020360351  MEMB      38              0.0000000000
      5048        38  POPC      H18S            7.4019921883       11.2841536674        0.5307726567  MEMB      38              0.0000000000
      5049        38  POPC      H18T            7.9358621268        9.9975742105        1.6602399135  MEMB      38              0.0000000000
      5050        38  POPC      C33             5.7921870251        6.0799885001      -12.5926687785  MEMB      38              0.0000000000
      5051        38  POPC      H3X             5.4630061277        5.1686815641      -12.0420962905  MEMB      38              0.0000000000
      5052        38  POPC      H3Y             5.2911740678        6.9483352086      -12.1011606478  MEMB      38              0.0000000000
      5053        38  POPC      C34             7.3195371333        6.1542734382      -12.5029605673  MEMB      38              0.0000000000
      5054        38  POPC      H4X             7.6581282239        7.1573358789      -12.8417710028  MEMB      38              0.0000000000
      5055        38  POPC      H4Y             7.7367353830        5.4011999413      -13.2110660419  MEMB      38              0.0000000000
      5056        38  POPC      C35             7.8674025241        5.7772200646      -11.1207999434  MEMB      38              0.0000000000
      5057        38  POPC      H5X             7.6300201027        4.7011545378      -10.9642490859  MEMB      38              0.0000000000
      5058        38  POPC      H5Y             7.3330734464        6.3610456574      -10.3407305334  MEMB      38              0.0000000000
      5059        38  POPC      C36             9.3833481678        6.0057624138      -10.9821934895  MEMB      38              0.0000000000
      5060        38  POPC      H6X             9.6067415284        7.0027992773      -11.4294499028  MEMB      38              0.0000000000
      5061        38  POPC      H6Y             9.9520582836        5.2404805888      -11.5529208513  MEMB      38              0.0000000000
      5062        38  POPC      C37             9.8760012877        6.0842969777       -9.5251700463  MEMB      38              0.0000000000
      5063        38  POPC      H7X             9.2740431417        6.8996361634       -9.0676050580  MEMB      38              0.0000000000
      5064        38  POPC      H7Y            10.9427785518        6.3996543783       -9.4954976441  MEMB      38              0.0000000000
      5065        38  POPC      C38             9.7154168260        4.8109567681       -8.6757084426  MEMB      38              0.0000000000
      5066        38  POPC      H8X            10.2291375302        3.9458278881       -9.1499461502  MEMB      38              0.0000000000
      5067        38  POPC      H8Y             8.6283437217        4.5796506432       -8.6182787961  MEMB      38              0.0000000000
      5068        38  POPC      C39            10.1791343929        4.9747622270       -7.2143951916  MEMB      38              0.0000000000
      5069        38  POPC      H9X            11.2762867417        5.1567307894       -7.1738150070  MEMB      38              0.0000000000
      5070        38  POPC      H9Y             9.9867256791        4.0134710858       -6.6848851410  MEMB      38              0.0000000000
      5071        38  POPC      C310            9.3892131184        6.1110670551       -6.5349058503  MEMB      38              0.0000000000
      5072        38  POPC      H10X            8.3028640983        5.8928452167       -6.6274480734  MEMB      38              0.0000000000
      5073        38  POPC      H10Y            9.5781974026        7.0568925652       -7.0890581447  MEMB      38              0.0000000000
      5074        38  POPC      C311            9.7176650026        6.4029595969       -5.0649589359  MEMB      38              0.0000000000
      5075        38  POPC      H11X            9.4986831090        7.4814946677       -4.8775757435  MEMB      38              0.0000000000
      5076        38  POPC      H11Y           10.8038166643        6.2558362121       -4.8913415703  MEMB      38              0.0000000000
      5077        38  POPC      C312            8.8778980558        5.5976363186       -4.0632409629  MEMB      38              0.0000000000
      5078        38  POPC      H12X            9.3513999348        5.6813259022       -3.0581021676  MEMB      38              0.0000000000
      5079        38  POPC      H12Y            8.8418959056        4.5229388655       -4.3424621113  MEMB      38              0.0000000000
      5080        38  POPC      C313            7.4642299770        6.1528030159       -3.8797427054  MEMB      38              0.0000000000
      5081        38  POPC      H13X            6.8699343605        6.1021224386       -4.8174002777  MEMB      38              0.0000000000
      5082        38  POPC      H13Y            7.5617974711        7.2275823934       -3.6030399166  MEMB      38              0.0000000000
      5083        38  POPC      C314            6.7124429025        5.4265639308       -2.7644651236  MEMB      38              0.0000000000
      5084        38  POPC      H14X            7.3312504085        5.4444588413       -1.8366843012  MEMB      38              0.0000000000
      5085        38  POPC      H14Y            6.5541511377        4.3589926650       -3.0334765504  MEMB      38              0.0000000000
      5086        38  POPC      C315            5.3569606530        6.0827469142       -2.5180861422  MEMB      38              0.0000000000
      5087        38  POPC      H15X            4.7993005838        5.5026586468       -1.7551739827  MEMB      38              0.0000000000
      5088        38  POPC      H15Y            4.7636814232        6.0418524910       -3.4609897257  MEMB      38              0.0000000000
      5089        38  POPC      C316            5.4548013245        7.5444888367       -2.0986846778  MEMB      38              0.0000000000
      5090        38  POPC      H16X            4.5481338684        7.8129395035       -1.5236262895  MEMB      38              0.0000000000
      5091        38  POPC      H16Y            5.5322101608        8.1864872698       -3.0050420892  MEMB      38              0.0000000000
      5092        38  POPC      H16Z            6.3377424792        7.7441587304       -1.4564567289  MEMB      38              0.0000000000
      5093        39  POPC      N               2.6647571176       12.5634771595      -20.5169899855  MEMB      39              0.0000000000
      5094        39  POPC      C12             3.8859886865       12.3184829228      -19.6458934206  MEMB      39              0.0000000000
      5095        39  POPC      H12A            4.3144682329       13.2785502837      -19.4147143878  MEMB      39              0.0000000000
      5096        39  POPC      H12B            4.6001012178       11.7434165883      -20.2249962981  MEMB      39              0.0000000000
      5097        39  POPC      C13             1.5806606268       13.1523736061      -19.6739520621  MEMB      39              0.0000000000
      5098        39  POPC      H13A            1.7796538829       14.1674178202      -19.3906537462  MEMB      39              0.0000000000
      5099        39  POPC      H13B            0.6138011179       13.0736391374      -20.1515000871  MEMB      39              0.0000000000
      5100        39  POPC      H13C            1.5114406197       12.5791793870      -18.7408749939  MEMB      39              0.0000000000
      5101        39  POPC      C14             2.9318449909       13.4998293810      -21.6302179023  MEMB      39              0.0000000000
      5102        39  POPC      H14A            3.8066967852       13.1827161545      -22.1929794006  MEMB      39              0.0000000000
      5103        39  POPC      H14B            2.0830809109       13.5108621940      -22.3118262292  MEMB      39              0.0000000000
      5104        39  POPC      H14C            3.0737556782       14.5096453182      -21.2852346917  MEMB      39              0.0000000000
      5105        39  POPC      C15             2.1571571854       11.2845051077      -21.1295007946  MEMB      39              0.0000000000
      5106        39  POPC      H15A            1.9007402180       10.5575946282      -20.3511426266  MEMB      39              0.0000000000
      5107        39  POPC      H15B            2.8881492841       10.8103575277      -21.7700770729  MEMB      39              0.0000000000
      5108        39  POPC      H15C            1.2691977234       11.4796786850      -21.7080182189  MEMB      39              0.0000000000
      5109        39  POPC      C11             3.6853226349       11.5758354087      -18.2932043885  MEMB      39              0.0000000000
      5110        39  POPC      H11A            3.2448180755       12.2569236997      -17.5256662348  MEMB      39              0.0000000000
      5111        39  POPC      H11B            4.6762465663       11.2595122317      -17.8961997041  MEMB      39              0.0000000000
      5112        39  POPC      P               1.6590416986       10.0123075714      -17.5722845404  MEMB      39              0.0000000000
      5113        39  POPC      O13             2.0770660238        9.7866156793      -16.1797450951  MEMB      39              0.0000000000
      5114        39  POPC      O14             0.8758482476        8.9885886922      -18.2862506358  MEMB      39              0.0000000000
      5115        39  POPC      O12             2.9118390872       10.4122539185      -18.4839896243  MEMB      39              0.0000000000
      5116        39  POPC      O11             0.8080728763       11.3653611718      -17.6207357026  MEMB      39              0.0000000000
      5117        39  POPC      C1             -0.1835323063       11.6671994013      -16.6305845035  MEMB      39              0.0000000000
      5118        39  POPC      HA             -0.0053505327       11.1072035293      -15.6800745708  MEMB      39              0.0000000000
      5119        39  POPC      HB             -1.1844696695       11.3601335193      -17.0018316023  MEMB      39              0.0000000000
      5120        39  POPC      C2             -0.2270108263       13.1939280760      -16.2944350853  MEMB      39              0.0000000000
      5121        39  POPC      HS             -0.7892540204       13.6971001739      -17.1112416345  MEMB      39              0.0000000000
      5122        39  POPC      O21             1.1204393280       13.6921214855      -16.2212384354  MEMB      39              0.0000000000
      5123        39  POPC      C21             1.2968002187       14.9594384741      -16.4335823751  MEMB      39              0.0000000000
      5124        39  POPC      O22             0.4491842467       15.7431800067      -16.8201227642  MEMB      39              0.0000000000
      5125        39  POPC      C22             2.7780784820       15.2567433852      -16.3004558802  MEMB      39              0.0000000000
      5126        39  POPC      H2R             2.9625364345       16.3423222726      -16.3887111734  MEMB      39              0.0000000000
      5127        39  POPC      H2S             3.2947913193       14.7522586045      -17.1414457832  MEMB      39              0.0000000000
      5128        39  POPC      C3             -0.9550119304       13.4760806840      -14.9647349814  MEMB      39              0.0000000000
      5129        39  POPC      HX             -1.9442832511       12.9505758744      -14.9848296470  MEMB      39              0.0000000000
      5130        39  POPC      HY             -1.1569546383       14.5593326673      -14.8203269729  MEMB      39              0.0000000000
      5131        39  POPC      O31            -0.0654148307       13.0130873640      -13.9390863428  MEMB      39              0.0000000000
      5132        39  POPC      C31            -0.6585870780       12.5915729165      -12.8727332133  MEMB      39              0.0000000000
      5133        39  POPC      O32            -1.8559130756       12.6539358667      -12.6743025901  MEMB      39              0.0000000000
      5134        39  POPC      C32             0.4074937804       12.0415425759      -11.9219339418  MEMB      39              0.0000000000
      5135        39  POPC      H2X            -0.0300639025       12.1792667306      -10.9103938177  MEMB      39              0.0000000000
      5136        39  POPC      H2Y             1.3703375480       12.5491783493      -12.0617597098  MEMB      39              0.0000000000
      5137        39  POPC      C23             3.3807073382       14.7226563398      -15.0050229178  MEMB      39              0.0000000000
      5138        39  POPC      H3R             2.9593986889       13.7349398448      -14.6967572957  MEMB      39              0.0000000000
      5139        39  POPC      H3S             3.2560023239       15.4354660698      -14.1569249917  MEMB      39              0.0000000000
      5140        39  POPC      C24             4.8435238264       14.4835055380      -15.2518039700  MEMB      39              0.0000000000
      5141        39  POPC      H4R             5.3042836651       15.4141404845      -15.6682152563  MEMB      39              0.0000000000
      5142        39  POPC      H4S             5.0143938630       13.6622365943      -15.9806450082  MEMB      39              0.0000000000
      5143        39  POPC      C25             5.5056269812       14.1226934213      -13.9524901599  MEMB      39              0.0000000000
      5144        39  POPC      H5R             5.4810160235       14.9966613675      -13.2517127843  MEMB      39              0.0000000000
      5145        39  POPC      H5S             6.5220200663       13.8835866606      -14.3216171022  MEMB      39              0.0000000000
      5146        39  POPC      C26             5.2192582082       12.7807758773      -13.2453067050  MEMB      39              0.0000000000
      5147        39  POPC      H6R             5.2881272548       12.0459504822      -14.0558530172  MEMB      39              0.0000000000
      5148        39  POPC      H6S             4.2099770213       12.7891935685      -12.8153540804  MEMB      39              0.0000000000
      5149        39  POPC      C27             6.1988938323       12.4814420260      -12.0816799254  MEMB      39              0.0000000000
      5150        39  POPC      H7R             5.9284742592       13.3534787459      -11.4446759233  MEMB      39              0.0000000000
      5151        39  POPC      H7S             7.2496894856       12.5368975288      -12.4041515501  MEMB      39              0.0000000000
      5152        39  POPC      C28             6.3797988691       11.1612430536      -11.3302160781  MEMB      39              0.0000000000
      5153        39  POPC      H8R             7.1315403948       11.1894756272      -10.5020980624  MEMB      39              0.0000000000
      5154        39  POPC      H8S             6.7423568455       10.3770151635      -12.0021321665  MEMB      39              0.0000000000
      5155        39  POPC      C29             5.0519122091       10.8130946530      -10.8774354122  MEMB      39              0.0000000000
      5156        39  POPC      H91             4.5542185647       10.1286965636      -11.5694795979  MEMB      39              0.0000000000
      5157        39  POPC      C210            4.4279921369       11.3244072081       -9.8313306656  MEMB      39              0.0000000000
      5158        39  POPC      H101            3.5958717357       10.8016711487       -9.5412038852  MEMB      39              0.0000000000
      5159        39  POPC      C211            4.7685634882       12.3215271154       -8.8064915037  MEMB      39              0.0000000000
      5160        39  POPC      H11R            4.6010555125       13.3684998013       -9.1371017932  MEMB      39              0.0000000000
      5161        39  POPC      H11S            5.8201237954       12.0654738798       -8.6914072399  MEMB      39              0.0000000000
      5162        39  POPC      C212            4.1494324901       12.1732184925       -7.4139866614  MEMB      39              0.0000000000
      5163        39  POPC      H12R            3.0489388911       12.2534657970       -7.3998705367  MEMB      39              0.0000000000
      5164        39  POPC      H12S            4.5407234627       13.0248487458       -6.7965584239  MEMB      39              0.0000000000
      5165        39  POPC      C213            4.6272048688       10.9017501125       -6.7584750642  MEMB      39              0.0000000000
      5166        39  POPC      H13R            5.5431425646       10.5478785218       -7.2912609179  MEMB      39              0.0000000000
      5167        39  POPC      H13S            4.0068044262       10.0032148374       -6.7493413405  MEMB      39              0.0000000000
      5168        39  POPC      C214            5.0088942662       11.2120647660       -5.3503449829  MEMB      39              0.0000000000
      5169        39  POPC      H14R            5.5753117127       12.1663602717       -5.2409285868  MEMB      39              0.0000000000
      5170        39  POPC      H14S            5.6064969044       10.2940244216       -5.2245573029  MEMB      39              0.0000000000
      5171        39  POPC      C215            4.0893670155       10.9955542401       -4.2150662344  MEMB      39              0.0000000000
      5172        39  POPC      H15R            3.7035480963        9.9490207072       -4.3056825115  MEMB      39              0.0000000000
      5173        39  POPC      H15S            3.2775036117       11.7448880319       -4.2149562500  MEMB      39              0.0000000000
      5174        39  POPC      C216            4.8216627662       11.0396461375       -2.9030591583  MEMB      39              0.0000000000
      5175        39  POPC      H16R            5.2187585079       12.0341301373       -2.5839556569  MEMB      39              0.0000000000
      5176        39  POPC      H16S            5.6653216789       10.3108752259       -2.8442663900  MEMB      39              0.0000000000
      5177        39  POPC      C217            3.7870792045       10.5844934787       -1.9639015727  MEMB      39              0.0000000000
      5178        39  POPC      H17R            3.6376173410        9.4804150627       -2.0377074469  MEMB      39              0.0000000000
      5179        39  POPC      H17S            2.7950455814       11.0738576986       -2.0248481753  MEMB      39              0.0000000000
      5180        39  POPC      C218            4.2957606330       10.8873983781       -0.6693429477  MEMB      39              0.0000000000
      5181        39  POPC      H18R            5.3286140086       10.4815755780       -0.5206846829  MEMB      39              0.0000000000
      5182        39  POPC      H18S            3.5435261359       10.2780564811       -0.1108275555  MEMB      39              0.0000000000
      5183        39  POPC      H18T            4.2564630072       11.9192728844       -0.2740903446  MEMB      39              0.0000000000
      5184        39  POPC      C33             0.7419336222       10.5667038220      -12.1677337316  MEMB      39              0.0000000000
      5185        39  POPC      H3X             1.0007041863       10.2510588705      -13.1975131861  MEMB      39              0.0000000000
      5186        39  POPC      H3Y            -0.3297750388       10.2848297037      -12.1888415837  MEMB      39              0.0000000000
      5187        39  POPC      C34             1.6827594483        9.8302176489      -11.0956703426  MEMB      39              0.0000000000
      5188        39  POPC      H4X             2.7090174109        9.8118740555      -11.4346508524  MEMB      39              0.0000000000
      5189        39  POPC      H4Y             1.4650416101        8.7475220881      -11.0181212028  MEMB      39              0.0000000000
      5190        39  POPC      C35             1.5749665666       10.2520928968       -9.5995261820  MEMB      39              0.0000000000
      5191        39  POPC      H5X             0.6482293306       10.6948538218       -9.7565626072  MEMB      39              0.0000000000
      5192        39  POPC      H5Y             1.8993204236       11.2543500116       -9.2971978376  MEMB      39              0.0000000000
      5193        39  POPC      C36             1.8997171898        9.1609418870       -8.4808922137  MEMB      39              0.0000000000
      5194        39  POPC      H6X             2.9702441953        8.9125014885       -8.6070199785  MEMB      39              0.0000000000
      5195        39  POPC      H6Y             1.4537934279        8.1902082915       -8.7855008174  MEMB      39              0.0000000000
      5196        39  POPC      C37             1.7073665997        9.4143899845       -6.8910532555  MEMB      39              0.0000000000
      5197        39  POPC      H7X             2.1778243488       10.3606408914       -6.6253525934  MEMB      39              0.0000000000
      5198        39  POPC      H7Y             2.0824987449        8.4827601781       -6.3930958589  MEMB      39              0.0000000000
      5199        39  POPC      C38             0.4845575849        9.5420762693       -5.9320596469  MEMB      39              0.0000000000
      5200        39  POPC      H8X             0.1075929538        8.5031317528       -5.8118595623  MEMB      39              0.0000000000
      5201        39  POPC      H8Y            -0.3665836375        9.5620744281       -6.4853658386  MEMB      39              0.0000000000
      5202        39  POPC      C39             0.0723748944       10.9248585120       -5.0851222651  MEMB      39              0.0000000000
      5203        39  POPC      H9X             0.4713688543       11.8160765601       -5.6010269502  MEMB      39              0.0000000000
      5204        39  POPC      H9Y             0.6347297456       10.7043631310       -4.1737379382  MEMB      39              0.0000000000
      5205        39  POPC      C310           -1.3514994553       11.5414088876       -4.5524776724  MEMB      39              0.0000000000
      5206        39  POPC      H10X           -1.9409639176       10.8923538149       -3.9930643134  MEMB      39              0.0000000000
      5207        39  POPC      H10Y           -2.3224060672       11.9052872925       -4.9487929406  MEMB      39              0.0000000000
      5208        39  POPC      C311           -1.3772530703       12.1509503790       -3.3126063707  MEMB      39              0.0000000000
      5209        39  POPC      H11X           -0.5852918726       11.5503453250       -2.8384485470  MEMB      39              0.0000000000
      5210        39  POPC      H11Y           -2.4156662216       12.0762540667       -2.7985948756  MEMB      39              0.0000000000
      5211        39  POPC      C312           -1.1391442467       13.4772646581       -3.8490232083  MEMB      39              0.0000000000
      5212        39  POPC      H12X           -2.0119019543       13.7570151338       -4.5138699671  MEMB      39              0.0000000000
      5213        39  POPC      H12Y           -0.1689918513       13.5209896374       -4.3634664193  MEMB      39              0.0000000000
      5214        39  POPC      C313           -1.2337884000       14.3146922415       -2.7058258453  MEMB      39              0.0000000000
      5215        39  POPC      H13X           -1.9999652342       13.7320497714       -2.1817156849  MEMB      39              0.0000000000
      5216        39  POPC      H13Y           -1.5460699300       15.3001584078       -3.0732251618  MEMB      39              0.0000000000
      5217        39  POPC      C314           -0.2623512773       14.2157906166       -1.6169587794  MEMB      39              0.0000000000
      5218        39  POPC      H14X           -0.0202077822       13.1574824775       -1.4575518524  MEMB      39              0.0000000000
      5219        39  POPC      H14Y           -0.6678738662       14.6886066540       -0.6915870391  MEMB      39              0.0000000000
      5220        39  POPC      C315            0.9574910344       14.9094647250       -1.9782789863  MEMB      39              0.0000000000
      5221        39  POPC      H15X            0.6291386822       15.9486815252       -2.2111563401  MEMB      39              0.0000000000
      5222        39  POPC      H15Y            1.3642397841       14.3919566573       -2.8784535891  MEMB      39              0.0000000000
      5223        39  POPC      C316            1.8255146450       14.7765553234       -0.7558929307  MEMB      39              0.0000000000
      5224        39  POPC      H16X            1.8538128238       13.7313066892       -0.3882767647  MEMB      39              0.0000000000
      5225        39  POPC      H16Y            1.4372933855       15.4179162122        0.0667346406  MEMB      39              0.0000000000
      5226        39  POPC      H16Z            2.8479086897       15.0285239547       -1.0374245874  MEMB      39              0.0000000000
      5227        40  POPC      N               5.0355037861       -9.4214404728      -20.7166505526  MEMB      40              0.0000000000
      5228        40  POPC      C12             5.6636070663      -10.8070789491      -20.6685911848  MEMB      40              0.0000000000
      5229        40  POPC      H12A            5.9954853267      -11.0930878332      -21.6420615734  MEMB      40              0.0000000000
      5230        40  POPC      H12B            4.8855208884      -11.4986420472      -20.3605426603  MEMB      40              0.0000000000
      5231        40  POPC      C13             6.0055271864       -8.3207846916      -20.9872317345  MEMB      40              0.0000000000
      5232        40  POPC      H13A            5.4830618805       -7.3679106221      -20.8882607488  MEMB      40              0.0000000000
      5233        40  POPC      H13B            6.8110094806       -8.3314333159      -20.2637789404  MEMB      40              0.0000000000
      5234        40  POPC      H13C            6.3634699840       -8.3456715235      -22.0028097527  MEMB      40              0.0000000000
      5235        40  POPC      C14             4.0032290877       -9.3049987992      -21.7797026639  MEMB      40              0.0000000000
      5236        40  POPC      H14A            3.6736661399       -8.2719832109      -21.8174408347  MEMB      40              0.0000000000
      5237        40  POPC      H14B            4.4064184542       -9.5606674502      -22.7407235915  MEMB      40              0.0000000000
      5238        40  POPC      H14C            3.1303295794       -9.9020985400      -21.5521925991  MEMB      40              0.0000000000
      5239        40  POPC      C15             4.3520823485       -9.1328253156      -19.4056143465  MEMB      40              0.0000000000
      5240        40  POPC      H15A            3.5488670492       -9.8249877217      -19.1969297685  MEMB      40              0.0000000000
      5241        40  POPC      H15B            3.9375111687       -8.1308779372      -19.3820835851  MEMB      40              0.0000000000
      5242        40  POPC      H15C            5.0556861300       -9.2472905275      -18.5804306508  MEMB      40              0.0000000000
      5243        40  POPC      C11             6.8224542603      -11.0589873706      -19.6814222201  MEMB      40              0.0000000000
      5244        40  POPC      H11A            7.6067209296      -10.2805777366      -19.8091329958  MEMB      40              0.0000000000
      5245        40  POPC      H11B            7.2986309582      -12.0437949963      -19.9004490014  MEMB      40              0.0000000000
      5246        40  POPC      P               7.0891103235      -10.8246505092      -17.0533980075  MEMB      40              0.0000000000
      5247        40  POPC      O13             7.8447123269      -12.0555859969      -16.7178911688  MEMB      40              0.0000000000
      5248        40  POPC      O14             6.1359793087      -10.2849909820      -16.0628915723  MEMB      40              0.0000000000
      5249        40  POPC      O12             6.2677517650      -11.0860291582      -18.3795715700  MEMB      40              0.0000000000
      5250        40  POPC      O11             8.0992968792       -9.6851989282      -17.5262526146  MEMB      40              0.0000000000
      5251        40  POPC      C1              7.6000992572       -8.3771439962      -17.8165730593  MEMB      40              0.0000000000
      5252        40  POPC      HA              6.5067232857       -8.2902362109      -17.6230085499  MEMB      40              0.0000000000
      5253        40  POPC      HB              7.8139986260       -8.1550338799      -18.8760376756  MEMB      40              0.0000000000
      5254        40  POPC      C2              8.2602920950       -7.3145292804      -16.9210425783  MEMB      40              0.0000000000
      5255        40  POPC      HS              9.3475228236       -7.3344757964      -17.2041008070  MEMB      40              0.0000000000
      5256        40  POPC      O21             7.9607443220       -7.7310437651      -15.5748916372  MEMB      40              0.0000000000
      5257        40  POPC      C21             8.9285620943       -7.5836021790      -14.7189592667  MEMB      40              0.0000000000
      5258        40  POPC      O22             9.9603126861       -6.9691162645      -14.9820137195  MEMB      40              0.0000000000
      5259        40  POPC      C22             8.5326281347       -8.2512287338      -13.3440543995  MEMB      40              0.0000000000
      5260        40  POPC      H2R             8.1131634646       -7.4738135916      -12.7141867729  MEMB      40              0.0000000000
      5261        40  POPC      H2S             9.3163318677       -8.3949269338      -12.6106271818  MEMB      40              0.0000000000
      5262        40  POPC      C3              7.7385236858       -5.8642108112      -17.1287931597  MEMB      40              0.0000000000
      5263        40  POPC      HX              7.7387753623       -5.6029288692      -18.2072538297  MEMB      40              0.0000000000
      5264        40  POPC      HY              8.4343175616       -5.1654968297      -16.6200542990  MEMB      40              0.0000000000
      5265        40  POPC      O31             6.4604566554       -5.6504755897      -16.5241398056  MEMB      40              0.0000000000
      5266        40  POPC      C31             5.4023925211       -5.9625562268      -17.2510626480  MEMB      40              0.0000000000
      5267        40  POPC      O32             5.3909052406       -6.2918725214      -18.4237090745  MEMB      40              0.0000000000
      5268        40  POPC      C32             4.2149645397       -5.8295253754      -16.3450640813  MEMB      40              0.0000000000
      5269        40  POPC      H2X             3.2799052538       -6.0132989824      -16.9170141751  MEMB      40              0.0000000000
      5270        40  POPC      H2Y             4.1903693098       -4.8405829764      -15.8489145745  MEMB      40              0.0000000000
      5271        40  POPC      C23             8.0052202922       -9.7368188856      -13.4694832846  MEMB      40              0.0000000000
      5272        40  POPC      H3R             8.1084212175      -10.0526644656      -14.5324489339  MEMB      40              0.0000000000
      5273        40  POPC      H3S             6.9612894879       -9.6668560859      -13.1548444106  MEMB      40              0.0000000000
      5274        40  POPC      C24             8.5585376221      -10.9802479219      -12.6962179996  MEMB      40              0.0000000000
      5275        40  POPC      H4R             8.6400355451      -10.7896865682      -11.6080887350  MEMB      40              0.0000000000
      5276        40  POPC      H4S             9.5271433224      -11.3206294048      -13.1074288746  MEMB      40              0.0000000000
      5277        40  POPC      C25             7.7863597568      -12.2871687704      -12.9572357140  MEMB      40              0.0000000000
      5278        40  POPC      H5R             7.9912241905      -12.5517493364      -14.0280367803  MEMB      40              0.0000000000
      5279        40  POPC      H5S             6.7032537934      -12.1057163984      -12.8419371597  MEMB      40              0.0000000000
      5280        40  POPC      C26             8.2425095199      -13.5060959687      -12.1281276755  MEMB      40              0.0000000000
      5281        40  POPC      H6R             9.3080891575      -13.4227338244      -11.8328878889  MEMB      40              0.0000000000
      5282        40  POPC      H6S             8.1657386102      -14.3979469641      -12.7964997792  MEMB      40              0.0000000000
      5283        40  POPC      C27             7.3765650654      -13.7902181437      -10.8957517554  MEMB      40              0.0000000000
      5284        40  POPC      H7R             7.7079197067      -14.7682399328      -10.4705026311  MEMB      40              0.0000000000
      5285        40  POPC      H7S             6.3282300554      -13.9244188407      -11.2339878392  MEMB      40              0.0000000000
      5286        40  POPC      C28             7.4422486250      -12.7009760376       -9.8129408835  MEMB      40              0.0000000000
      5287        40  POPC      H8R             6.9507719867      -11.7672114307      -10.1530874834  MEMB      40              0.0000000000
      5288        40  POPC      H8S             8.5109708624      -12.4357220504       -9.6566717493  MEMB      40              0.0000000000
      5289        40  POPC      C29             6.7795295224      -13.2037062403       -8.5577478455  MEMB      40              0.0000000000
      5290        40  POPC      H91             5.6832081233      -13.2510546800       -8.5565769829  MEMB      40              0.0000000000
      5291        40  POPC      C210            7.4241208487      -13.4996103702       -7.4320342388  MEMB      40              0.0000000000
      5292        40  POPC      H101            6.8814411805      -13.7890017173       -6.5199975059  MEMB      40              0.0000000000
      5293        40  POPC      C211            8.8843152905      -13.3773314921       -7.2163660912  MEMB      40              0.0000000000
      5294        40  POPC      H11R            9.5269022827      -13.0804700317       -8.0792888875  MEMB      40              0.0000000000
      5295        40  POPC      H11S            9.2961972675      -14.3304425280       -6.8160163889  MEMB      40              0.0000000000
      5296        40  POPC      C212            8.8230210185      -12.2331733839       -6.1999661151  MEMB      40              0.0000000000
      5297        40  POPC      H12R            9.5329638310      -12.5619663705       -5.5613223521  MEMB      40              0.0000000000
      5298        40  POPC      H12S            8.1679832401      -12.2895193498       -5.3140000879  MEMB      40              0.0000000000
      5299        40  POPC      C213            9.4071823435      -10.8761124558       -6.6483695551  MEMB      40              0.0000000000
      5300        40  POPC      H13R            8.4754518134      -10.3266110161       -6.7694955476  MEMB      40              0.0000000000
      5301        40  POPC      H13S            9.9314886806      -10.9787078525       -7.6228070546  MEMB      40              0.0000000000
      5302        40  POPC      C214           10.3196478219      -10.0818910988       -5.6729345182  MEMB      40              0.0000000000
      5303        40  POPC      H14R           11.3613539454      -10.4755717417       -5.7119311031  MEMB      40              0.0000000000
      5304        40  POPC      H14S            9.9258783170      -10.2505153048       -4.6480955478  MEMB      40              0.0000000000
      5305        40  POPC      C215           10.4369575411       -8.5581984067       -5.9521320585  MEMB      40              0.0000000000
      5306        40  POPC      H15R            9.6873919556       -8.2516190638       -6.7074666356  MEMB      40              0.0000000000
      5307        40  POPC      H15S           11.4500581600       -8.3523921850       -6.3748103485  MEMB      40              0.0000000000
      5308        40  POPC      C216           10.2476026284       -7.6332108541       -4.7330349106  MEMB      40              0.0000000000
      5309        40  POPC      H16R            9.2545457481       -7.8002889186       -4.2581446417  MEMB      40              0.0000000000
      5310        40  POPC      H16S           10.3676522017       -6.5685962669       -5.0203291700  MEMB      40              0.0000000000
      5311        40  POPC      C217           11.2922694229       -7.8798794833       -3.6824474559  MEMB      40              0.0000000000
      5312        40  POPC      H17R           12.2316947165       -8.0728673627       -4.1733009190  MEMB      40              0.0000000000
      5313        40  POPC      H17S           11.0824546050       -8.9287373726       -3.4157580296  MEMB      40              0.0000000000
      5314        40  POPC      C218           11.3621750654       -6.8224337341       -2.5246296620  MEMB      40              0.0000000000
      5315        40  POPC      H18R           11.7482340288       -5.8305328451       -2.8038972931  MEMB      40              0.0000000000
      5316        40  POPC      H18S           12.0495620274       -7.1215143104       -1.7009173864  MEMB      40              0.0000000000
      5317        40  POPC      H18T           10.3679019473       -6.7223747645       -2.0350021922  MEMB      40              0.0000000000
      5318        40  POPC      C33             4.3716658518       -6.8958327923      -15.2977480755  MEMB      40              0.0000000000
      5319        40  POPC      H3X             5.1016012369       -6.6652129243      -14.4894440484  MEMB      40              0.0000000000
      5320        40  POPC      H3Y             4.6643092180       -7.8698693953      -15.7802736001  MEMB      40              0.0000000000
      5321        40  POPC      C34             3.0911234394       -7.1982453754      -14.6507937818  MEMB      40              0.0000000000
      5322        40  POPC      H4X             2.2401472356       -7.2169369612      -15.3786235531  MEMB      40              0.0000000000
      5323        40  POPC      H4Y             2.7720814904       -6.4704190092      -13.8632764482  MEMB      40              0.0000000000
      5324        40  POPC      C35             3.4055435110       -8.5794793193      -14.1084259402  MEMB      40              0.0000000000
      5325        40  POPC      H5X             3.3914411273       -9.5213686170      -14.6844441764  MEMB      40              0.0000000000
      5326        40  POPC      H5Y             2.3702144868       -8.6469274558      -14.0288929718  MEMB      40              0.0000000000
      5327        40  POPC      C36             4.4275473189       -8.6696596107      -12.9313197798  MEMB      40              0.0000000000
      5328        40  POPC      H6X             5.4191470848       -8.5256012450      -13.3879069110  MEMB      40              0.0000000000
      5329        40  POPC      H6Y             4.4008092291       -9.7130152514      -12.5284458926  MEMB      40              0.0000000000
      5330        40  POPC      C37             4.3925092407       -7.7001118697      -11.7172962404  MEMB      40              0.0000000000
      5331        40  POPC      H7X             3.7239054342       -8.0771843534      -10.9757180627  MEMB      40              0.0000000000
      5332        40  POPC      H7Y             4.0376356222       -6.6724801629      -11.8896071810  MEMB      40              0.0000000000
      5333        40  POPC      C38             5.5633632765       -7.8471476433      -10.7527503650  MEMB      40              0.0000000000
      5334        40  POPC      H8X             6.4699783826       -7.5778929031      -11.3144249989  MEMB      40              0.0000000000
      5335        40  POPC      H8Y             5.6114497584       -8.9276076538      -10.4684163068  MEMB      40              0.0000000000
      5336        40  POPC      C39             5.4030971418       -7.0074478463       -9.4727355835  MEMB      40              0.0000000000
      5337        40  POPC      H9X             4.4066203691       -7.0786807286       -9.0124537825  MEMB      40              0.0000000000
      5338        40  POPC      H9Y             5.4856430314       -5.9370409127       -9.7566869102  MEMB      40              0.0000000000
      5339        40  POPC      C310            6.4410265632       -7.3978196624       -8.4132612527  MEMB      40              0.0000000000
      5340        40  POPC      H10X            6.4188867930       -6.6523120194       -7.5891478933  MEMB      40              0.0000000000
      5341        40  POPC      H10Y            7.4242535902       -7.3170062946       -8.9293490819  MEMB      40              0.0000000000
      5342        40  POPC      C311            6.3652655556       -8.8555785011       -7.8837070100  MEMB      40              0.0000000000
      5343        40  POPC      H11X            7.2410941068       -9.0413500854       -7.2538877397  MEMB      40              0.0000000000
      5344        40  POPC      H11Y            6.4299751127       -9.5452204705       -8.7519278804  MEMB      40              0.0000000000
      5345        40  POPC      C312            5.1231033107       -9.2704786770       -7.0883252108  MEMB      40              0.0000000000
      5346        40  POPC      H12X            4.7787898203      -10.2962549677       -7.3556616476  MEMB      40              0.0000000000
      5347        40  POPC      H12Y            4.3684006167       -8.5560269187       -7.4078571779  MEMB      40              0.0000000000
      5348        40  POPC      C313            5.1517331558       -9.0963701355       -5.5646041281  MEMB      40              0.0000000000
      5349        40  POPC      H13X            4.1135093036       -9.3077621227       -5.2127910414  MEMB      40              0.0000000000
      5350        40  POPC      H13Y            5.3827469028       -8.0255833466       -5.3705744550  MEMB      40              0.0000000000
      5351        40  POPC      C314            6.1242854991      -10.0145676601       -4.8113434445  MEMB      40              0.0000000000
      5352        40  POPC      H14X            7.1687540939       -9.7565594148       -5.0895768783  MEMB      40              0.0000000000
      5353        40  POPC      H14Y            5.9327695559      -11.0682887888       -5.1078725317  MEMB      40              0.0000000000
      5354        40  POPC      C315            6.0258997675       -9.9146890320       -3.2862335711  MEMB      40              0.0000000000
      5355        40  POPC      H15X            5.1413604145      -10.4875341760       -2.9247098019  MEMB      40              0.0000000000
      5356        40  POPC      H15Y            5.8412796392       -8.8521068167       -3.0223025965  MEMB      40              0.0000000000
      5357        40  POPC      C316            7.2735920045      -10.4462205445       -2.5735201369  MEMB      40              0.0000000000
      5358        40  POPC      H16X            7.0576690413      -10.5702488731       -1.5022381049  MEMB      40              0.0000000000
      5359        40  POPC      H16Y            8.1607033715       -9.7854580845       -2.6598610468  MEMB      40              0.0000000000
      5360        40  POPC      H16Z            7.5379250104      -11.4572296996       -2.9355108913  MEMB      40              0.0000000000
      5361        41  POPC      N             -10.8317010524       -7.3468249153      -20.8235222194  MEMB      41              0.0000000000
      5362        41  POPC      C12           -10.1339854039       -6.5505455835      -19.7289244036  MEMB      41              0.0000000000
      5363        41  POPC      H12A          -10.7955768817       -6.4702106235      -18.8773162364  MEMB      41              0.0000000000
      5364        41  POPC      H12B           -9.9334284367       -5.5513920271      -20.1019136245  MEMB      41              0.0000000000
      5365        41  POPC      C13           -11.9230984707       -6.5095684451      -21.3928086531  MEMB      41              0.0000000000
      5366        41  POPC      H13A          -11.4986350383       -5.8514929391      -22.1467675660  MEMB      41              0.0000000000
      5367        41  POPC      H13B          -12.6852867984       -7.1330787463      -21.8300379931  MEMB      41              0.0000000000
      5368        41  POPC      H13C          -12.3703431198       -5.9014318107      -20.6162704212  MEMB      41              0.0000000000
      5369        41  POPC      C14            -9.8988716427       -7.6854659703      -21.9335092442  MEMB      41              0.0000000000
      5370        41  POPC      H14A           -9.3112524261       -6.8168459267      -22.2399797134  MEMB      41              0.0000000000
      5371        41  POPC      H14B           -9.2024954916       -8.4637719435      -21.6391714027  MEMB      41              0.0000000000
      5372        41  POPC      H14C          -10.4268525242       -8.0465793356      -22.7965015006  MEMB      41              0.0000000000
      5373        41  POPC      C15           -11.3637219996       -8.6228855827      -20.2579478721  MEMB      41              0.0000000000
      5374        41  POPC      H15A          -10.5596176836       -9.1117971224      -19.6947194990  MEMB      41              0.0000000000
      5375        41  POPC      H15B          -11.6944278568       -9.2993241712      -21.0345608549  MEMB      41              0.0000000000
      5376        41  POPC      H15C          -12.1571655013       -8.4205365346      -19.5626105931  MEMB      41              0.0000000000
      5377        41  POPC      C11            -8.8032346399       -7.0870513480      -19.1684137976  MEMB      41              0.0000000000
      5378        41  POPC      H11A           -8.3647414384       -6.3095694863      -18.5021786243  MEMB      41              0.0000000000
      5379        41  POPC      H11B           -8.1087538913       -7.1878281036      -20.0144125573  MEMB      41              0.0000000000
      5380        41  POPC      P              -8.2496104595       -8.7040390082      -17.1291846242  MEMB      41              0.0000000000
      5381        41  POPC      O13            -7.2262105741       -7.6929531439      -16.7886360943  MEMB      41              0.0000000000
      5382        41  POPC      O14            -7.8585649454      -10.1040648795      -17.1703213586  MEMB      41              0.0000000000
      5383        41  POPC      O12            -8.9809514599       -8.3358108457      -18.5157796427  MEMB      41              0.0000000000
      5384        41  POPC      O11            -9.4179750091       -8.5951361375      -16.0962885531  MEMB      41              0.0000000000
      5385        41  POPC      C1            -10.7659385196       -8.7113785921      -16.5046042804  MEMB      41              0.0000000000
      5386        41  POPC      HA            -10.9938014201       -9.7582584798      -16.8237866671  MEMB      41              0.0000000000
      5387        41  POPC      HB            -11.0091107713       -8.0237796521      -17.3433796873  MEMB      41              0.0000000000
      5388        41  POPC      C2            -11.6480722705       -8.3408749370      -15.3015698747  MEMB      41              0.0000000000
      5389        41  POPC      HS            -12.6537957045       -8.2905813158      -15.7322886813  MEMB      41              0.0000000000
      5390        41  POPC      O21           -11.2783645343       -7.0750746292      -14.6974610863  MEMB      41              0.0000000000
      5391        41  POPC      C21           -11.8356353237       -6.0009215604      -15.2656097542  MEMB      41              0.0000000000
      5392        41  POPC      O22           -12.6257515493       -6.0388111545      -16.1935325338  MEMB      41              0.0000000000
      5393        41  POPC      C22           -11.2360740764       -4.6996395885      -14.7001622165  MEMB      41              0.0000000000
      5394        41  POPC      H2R           -10.6624911812       -4.9063206447      -13.7759209987  MEMB      41              0.0000000000
      5395        41  POPC      H2S           -12.0768454252       -4.0189701005      -14.4458894898  MEMB      41              0.0000000000
      5396        41  POPC      C3            -11.5605991495       -9.4941348548      -14.2510956392  MEMB      41              0.0000000000
      5397        41  POPC      HX            -10.4943274529       -9.8057772385      -14.2203454649  MEMB      41              0.0000000000
      5398        41  POPC      HY            -12.1119652899      -10.3848485893      -14.6539844221  MEMB      41              0.0000000000
      5399        41  POPC      O31           -11.9456156567       -9.0844229720      -12.9060517797  MEMB      41              0.0000000000
      5400        41  POPC      C31           -13.2493200730       -9.2510772112      -12.6550571440  MEMB      41              0.0000000000
      5401        41  POPC      O32           -13.9921183740       -9.8151021806      -13.4246064799  MEMB      41              0.0000000000
      5402        41  POPC      C32           -13.7465419384       -8.7149502372      -11.2888348576  MEMB      41              0.0000000000
      5403        41  POPC      H2X           -14.3036281210       -9.4512011099      -10.7195172655  MEMB      41              0.0000000000
      5404        41  POPC      H2Y           -14.6047361602       -8.0420679214      -11.3530100996  MEMB      41              0.0000000000
      5405        41  POPC      C23           -10.3876763730       -4.0311134968      -15.8102184124  MEMB      41              0.0000000000
      5406        41  POPC      H3R           -11.1196579027       -3.6643784660      -16.5684370110  MEMB      41              0.0000000000
      5407        41  POPC      H3S            -9.7523009103       -4.7936440521      -16.3152817631  MEMB      41              0.0000000000
      5408        41  POPC      C24            -9.5335817021       -2.8121420097      -15.3937848924  MEMB      41              0.0000000000
      5409        41  POPC      H4R           -10.1912420956       -2.0651864528      -14.9182998838  MEMB      41              0.0000000000
      5410        41  POPC      H4S            -9.1381955834       -2.3701596027      -16.3360205349  MEMB      41              0.0000000000
      5411        41  POPC      C25            -8.3060118340       -3.0639058563      -14.4917743935  MEMB      41              0.0000000000
      5412        41  POPC      H5R            -8.6199257023       -3.3650779607      -13.4703283797  MEMB      41              0.0000000000
      5413        41  POPC      H5S            -7.7199300451       -2.1175567457      -14.3976199942  MEMB      41              0.0000000000
      5414        41  POPC      C26            -7.4149887084       -4.1665657418      -15.0744218161  MEMB      41              0.0000000000
      5415        41  POPC      H6R            -7.1430859112       -3.8676125004      -16.1131123317  MEMB      41              0.0000000000
      5416        41  POPC      H6S            -7.9985341237       -5.1136720455      -15.1298702869  MEMB      41              0.0000000000
      5417        41  POPC      C27            -6.1334539584       -4.5125228792      -14.3003927186  MEMB      41              0.0000000000
      5418        41  POPC      H7R            -5.4148249359       -3.6680730349      -14.3828784735  MEMB      41              0.0000000000
      5419        41  POPC      H7S            -5.6819987678       -5.3810894845      -14.8345393099  MEMB      41              0.0000000000
      5420        41  POPC      C28            -6.3062091180       -4.9133104101      -12.8154192930  MEMB      41              0.0000000000
      5421        41  POPC      H8R            -6.6237899475       -4.0360286974      -12.2168042422  MEMB      41              0.0000000000
      5422        41  POPC      H8S            -5.2936893021       -5.1613444077      -12.4611702246  MEMB      41              0.0000000000
      5423        41  POPC      C29            -7.1791752827       -6.1292923533      -12.5895846754  MEMB      41              0.0000000000
      5424        41  POPC      H91            -6.8679335306       -7.0196227115      -13.1648010756  MEMB      41              0.0000000000
      5425        41  POPC      C210           -8.2949010708       -6.2250278022      -11.8329942313  MEMB      41              0.0000000000
      5426        41  POPC      H101           -8.7935894188       -7.2047711845      -11.7743506288  MEMB      41              0.0000000000
      5427        41  POPC      C211           -8.9809475454       -5.1575528082      -11.0081880037  MEMB      41              0.0000000000
      5428        41  POPC      H11R           -9.9462284730       -4.9020469974      -11.5039483808  MEMB      41              0.0000000000
      5429        41  POPC      H11S           -8.3894585253       -4.2199415408      -10.9330713534  MEMB      41              0.0000000000
      5430        41  POPC      C212           -9.3554042336       -5.6134540520       -9.5840197997  MEMB      41              0.0000000000
      5431        41  POPC      H12R           -9.7131302128       -6.6674525468       -9.6016741544  MEMB      41              0.0000000000
      5432        41  POPC      H12S          -10.2075199729       -4.9960515157       -9.2168564281  MEMB      41              0.0000000000
      5433        41  POPC      C213           -8.2076405750       -5.5197269613       -8.5809428484  MEMB      41              0.0000000000
      5434        41  POPC      H13R           -7.8366531191       -4.4727781118       -8.4956879260  MEMB      41              0.0000000000
      5435        41  POPC      H13S           -7.3661981276       -6.1495033361       -8.9418887838  MEMB      41              0.0000000000
      5436        41  POPC      C214           -8.6599137764       -6.0074440550       -7.2015013020  MEMB      41              0.0000000000
      5437        41  POPC      H14R           -9.0265057345       -7.0551468739       -7.2802858622  MEMB      41              0.0000000000
      5438        41  POPC      H14S           -9.5124556904       -5.3697823879       -6.8755530685  MEMB      41              0.0000000000
      5439        41  POPC      C215           -7.5217401714       -5.9513677483       -6.1838583478  MEMB      41              0.0000000000
      5440        41  POPC      H15R           -7.0409140317       -4.9497557528       -6.2412791538  MEMB      41              0.0000000000
      5441        41  POPC      H15S           -6.7474268360       -6.6952360782       -6.4850401323  MEMB      41              0.0000000000
      5442        41  POPC      C216           -7.9322483431       -6.2540257738       -4.7316038469  MEMB      41              0.0000000000
      5443        41  POPC      H16R           -7.1381288940       -5.8374666286       -4.0759302983  MEMB      41              0.0000000000
      5444        41  POPC      H16S           -7.9316145907       -7.3596026469       -4.5995625165  MEMB      41              0.0000000000
      5445        41  POPC      C217           -9.3137905729       -5.7486889515       -4.2730385165  MEMB      41              0.0000000000
      5446        41  POPC      H17R          -10.0917209085       -6.3250654118       -4.8203595766  MEMB      41              0.0000000000
      5447        41  POPC      H17S           -9.4584791096       -4.6783417244       -4.5386516339  MEMB      41              0.0000000000
      5448        41  POPC      C218           -9.5494515240       -5.9342212727       -2.7688287809  MEMB      41              0.0000000000
      5449        41  POPC      H18R           -9.0269985327       -5.1400955671       -2.1940853624  MEMB      41              0.0000000000
      5450        41  POPC      H18S           -9.1590127134       -6.9201886954       -2.4340317766  MEMB      41              0.0000000000
      5451        41  POPC      H18T          -10.6341978362       -5.8920266627       -2.5333388688  MEMB      41              0.0000000000
      5452        41  POPC      C33           -12.6170406769       -8.1361649607      -10.4672424703  MEMB      41              0.0000000000
      5453        41  POPC      H3X           -12.3966280583       -7.1199075581      -10.8510041400  MEMB      41              0.0000000000
      5454        41  POPC      H3Y           -11.7211269015       -8.7957194584      -10.5660372691  MEMB      41              0.0000000000
      5455        41  POPC      C34           -13.0474846962       -7.9583103502       -9.0327217105  MEMB      41              0.0000000000
      5456        41  POPC      H4X           -13.6747205718       -8.7551757557       -8.7122905608  MEMB      41              0.0000000000
      5457        41  POPC      H4Y           -13.8487139496       -7.2007378672       -8.9978641632  MEMB      41              0.0000000000
      5458        41  POPC      C35           -11.8558736528       -7.7721443391       -8.0805665006  MEMB      41              0.0000000000
      5459        41  POPC      H5X           -11.5519633287       -6.7231421838       -8.2743656750  MEMB      41              0.0000000000
      5460        41  POPC      H5Y           -11.0116420841       -8.4618208976       -8.2733207682  MEMB      41              0.0000000000
      5461        41  POPC      C36           -12.1456274638       -7.8634111721       -6.6019750748  MEMB      41              0.0000000000
      5462        41  POPC      H6X           -11.3140242018       -7.5500796836       -5.9453929769  MEMB      41              0.0000000000
      5463        41  POPC      H6Y           -12.4627471932       -8.8790522473       -6.2763122754  MEMB      41              0.0000000000
      5464        41  POPC      C37           -13.2233350773       -6.8907390485       -6.3502817644  MEMB      41              0.0000000000
      5465        41  POPC      H7X           -14.0476688574       -7.4081876511       -6.8734524732  MEMB      41              0.0000000000
      5466        41  POPC      H7Y           -13.1940417124       -5.9765052386       -6.9358850613  MEMB      41              0.0000000000
      5467        41  POPC      C38           -13.3257053435       -6.6178223295       -4.8519246317  MEMB      41              0.0000000000
      5468        41  POPC      H8X           -14.3266801100       -6.1296328266       -4.8988963516  MEMB      41              0.0000000000
      5469        41  POPC      H8Y           -12.7074474827       -5.8534532671       -4.3790029165  MEMB      41              0.0000000000
      5470        41  POPC      C39           -13.1448787917       -7.9083924801       -4.0063398822  MEMB      41              0.0000000000
      5471        41  POPC      H9X           -12.6153875575       -8.8201884513       -4.2346889018  MEMB      41              0.0000000000
      5472        41  POPC      H9Y           -13.9509192442       -8.2891860487       -4.6162260383  MEMB      41              0.0000000000
      5473        41  POPC      C310          -13.3189887724       -7.8699828001       -2.4679380737  MEMB      41              0.0000000000
      5474        41  POPC      H10X          -13.7346281112       -6.8730438791       -2.4970145859  MEMB      41              0.0000000000
      5475        41  POPC      H10Y          -12.8585137121       -7.1197955832       -1.8206424148  MEMB      41              0.0000000000
      5476        41  POPC      C311          -13.9987668517       -9.1271112757       -1.6323708079  MEMB      41              0.0000000000
      5477        41  POPC      H11X          -14.9071144477       -9.7298781959       -1.8771765393  MEMB      41              0.0000000000
      5478        41  POPC      H11Y          -14.4538554390       -8.9891635545       -0.5707413567  MEMB      41              0.0000000000
      5479        41  POPC      C312          -13.0240850745       -9.8034076981       -1.1579653358  MEMB      41              0.0000000000
      5480        41  POPC      H12X          -12.7437351814      -10.0898318743       -2.2040496224  MEMB      41              0.0000000000
      5481        41  POPC      H12Y          -13.6961731503      -10.5228904134       -0.5675998634  MEMB      41              0.0000000000
      5482        41  POPC      C313          -12.2295120849       -8.8148245285       -0.3691329691  MEMB      41              0.0000000000
      5483        41  POPC      H13X          -12.9188093136       -8.2376590171        0.2291781889  MEMB      41              0.0000000000
      5484        41  POPC      H13Y          -11.6363185227       -8.0828378378       -0.9409218200  MEMB      41              0.0000000000
      5485        41  POPC      C314          -11.2222984343       -9.4043936193        0.5073978560  MEMB      41              0.0000000000
      5486        41  POPC      H14X          -10.6110091273       -8.5749747653        0.8829005052  MEMB      41              0.0000000000
      5487        41  POPC      H14Y          -10.5831866795       -9.9397036656       -0.2125796428  MEMB      41              0.0000000000
      5488        41  POPC      C315          -11.8512350615      -10.2625594547        1.5844182592  MEMB      41              0.0000000000
      5489        41  POPC      H15X          -12.4352217188      -10.9801419664        1.0060700853  MEMB      41              0.0000000000
      5490        41  POPC      H15Y          -12.6437600612       -9.7922549117        2.1987142753  MEMB      41              0.0000000000
      5491        41  POPC      C316          -10.7930212837      -10.9077896137        2.4631376521  MEMB      41              0.0000000000
      5492        41  POPC      H16X          -10.1949853805      -10.1794136687        3.0275692267  MEMB      41              0.0000000000
      5493        41  POPC      H16Y          -10.0529550793      -11.3991169398        1.8584842502  MEMB      41              0.0000000000
      5494        41  POPC      H16Z          -11.1593390796      -11.7012254334        3.1213383772  MEMB      41              0.0000000000
      5495        42  POPC      N              -1.5266967967      -14.3942889928      -20.6562519088  MEMB      42              0.0000000000
      5496        42  POPC      C12            -0.8971565881      -14.0961147562      -19.2938918677  MEMB      42              0.0000000000
      5497        42  POPC      H12A            0.1301684108      -13.7917167950      -19.4303708375  MEMB      42              0.0000000000
      5498        42  POPC      H12B           -0.9121358562      -14.9951847681      -18.6926030820  MEMB      42              0.0000000000
      5499        42  POPC      C13            -0.6925022376      -15.3725226749      -21.3966259695  MEMB      42              0.0000000000
      5500        42  POPC      H13A           -0.6607895955      -16.3027659716      -20.8439309380  MEMB      42              0.0000000000
      5501        42  POPC      H13B           -1.1223556555      -15.5782294453      -22.3672146864  MEMB      42              0.0000000000
      5502        42  POPC      H13C            0.3173084211      -14.9981899645      -21.5037529460  MEMB      42              0.0000000000
      5503        42  POPC      C14            -2.8815328738      -15.0065342386      -20.4421115838  MEMB      42              0.0000000000
      5504        42  POPC      H14A           -2.8129660669      -15.8843326215      -19.8144724486  MEMB      42              0.0000000000
      5505        42  POPC      H14B           -3.5185292477      -14.3188055167      -19.8723319474  MEMB      42              0.0000000000
      5506        42  POPC      H14C           -3.3943237656      -15.2335316536      -21.3714493766  MEMB      42              0.0000000000
      5507        42  POPC      C15            -1.6520252457      -13.1440678042      -21.4796236673  MEMB      42              0.0000000000
      5508        42  POPC      H15A           -0.7288029879      -12.8448579851      -21.9673659294  MEMB      42              0.0000000000
      5509        42  POPC      H15B           -1.9425387289      -12.3157349011      -20.8317393063  MEMB      42              0.0000000000
      5510        42  POPC      H15C           -2.4452893915      -13.2231391845      -22.2107291369  MEMB      42              0.0000000000
      5511        42  POPC      C11            -1.5699412502      -13.0346162072      -18.4142406666  MEMB      42              0.0000000000
      5512        42  POPC      H11A           -1.6475248036      -12.1408320124      -19.0167230167  MEMB      42              0.0000000000
      5513        42  POPC      H11B           -0.9543020811      -12.7699566814      -17.5258099784  MEMB      42              0.0000000000
      5514        42  POPC      P              -3.8134360215      -12.2964131997      -17.4939571280  MEMB      42              0.0000000000
      5515        42  POPC      O13            -4.0627889793      -11.3903267064      -18.6334618006  MEMB      42              0.0000000000
      5516        42  POPC      O14            -3.2289102124      -11.7628608247      -16.2553322645  MEMB      42              0.0000000000
      5517        42  POPC      O12            -2.8614069422      -13.4450119300      -18.0301924642  MEMB      42              0.0000000000
      5518        42  POPC      O11            -5.0425052076      -13.1497979521      -17.2191201631  MEMB      42              0.0000000000
      5519        42  POPC      C1             -5.9974714385      -13.4509975542      -18.2458776055  MEMB      42              0.0000000000
      5520        42  POPC      HA             -5.5502944326      -13.5702243164      -19.2493207724  MEMB      42              0.0000000000
      5521        42  POPC      HB             -6.7991358088      -12.6735133848      -18.2493733366  MEMB      42              0.0000000000
      5522        42  POPC      C2             -6.7007323330      -14.7094653496      -17.8554846708  MEMB      42              0.0000000000
      5523        42  POPC      HS             -7.6824591525      -14.8515757031      -18.3546074422  MEMB      42              0.0000000000
      5524        42  POPC      O21            -6.9019463625      -14.4837742572      -16.4774214328  MEMB      42              0.0000000000
      5525        42  POPC      C21            -7.0812113110      -13.3698162119      -15.6135704046  MEMB      42              0.0000000000
      5526        42  POPC      O22            -7.6267492846      -12.3809811606      -16.0158888326  MEMB      42              0.0000000000
      5527        42  POPC      C22            -7.0594358065      -13.6188791358      -14.0409126453  MEMB      42              0.0000000000
      5528        42  POPC      H2R            -6.8112923850      -14.5277942475      -13.5223378009  MEMB      42              0.0000000000
      5529        42  POPC      H2S            -7.9305329455      -13.8222775130      -13.4450184816  MEMB      42              0.0000000000
      5530        42  POPC      C3             -5.8382437445      -16.0203506396      -18.2175524787  MEMB      42              0.0000000000
      5531        42  POPC      HX             -5.7956996656      -16.0515255132      -19.3317620261  MEMB      42              0.0000000000
      5532        42  POPC      HY             -6.3398973357      -16.9874670415      -17.9558600194  MEMB      42              0.0000000000
      5533        42  POPC      O31            -4.4592941828      -15.9361418765      -17.7747124629  MEMB      42              0.0000000000
      5534        42  POPC      C31            -4.1527028539      -16.6989541404      -16.7133181149  MEMB      42              0.0000000000
      5535        42  POPC      O32            -4.8137217282      -17.6605956236      -16.3730878508  MEMB      42              0.0000000000
      5536        42  POPC      C32            -2.8500614945      -16.2872223043      -16.0234365563  MEMB      42              0.0000000000
      5537        42  POPC      H2X            -2.8254568998      -15.1782840011      -15.9982520327  MEMB      42              0.0000000000
      5538        42  POPC      H2Y            -2.0061598511      -16.6707189255      -16.6288286979  MEMB      42              0.0000000000
      5539        42  POPC      C23            -5.9423598281      -12.8416376052      -13.5519268849  MEMB      42              0.0000000000
      5540        42  POPC      H3R            -6.2751272945      -11.7932748935      -13.7056044609  MEMB      42              0.0000000000
      5541        42  POPC      H3S            -5.0799027529      -13.1190987262      -14.2074055121  MEMB      42              0.0000000000
      5542        42  POPC      C24            -5.6636376137      -13.2714534634      -12.1372571435  MEMB      42              0.0000000000
      5543        42  POPC      H4R            -4.6205694536      -12.9429110950      -11.9707972787  MEMB      42              0.0000000000
      5544        42  POPC      H4S            -5.6782460674      -14.3747809013      -11.9422407852  MEMB      42              0.0000000000
      5545        42  POPC      C25            -6.6627529876      -12.5266643506      -11.2762724745  MEMB      42              0.0000000000
      5546        42  POPC      H5R            -7.6231640429      -13.0830373887      -11.1576715448  MEMB      42              0.0000000000
      5547        42  POPC      H5S            -6.9495939913      -11.5899978058      -11.7975583814  MEMB      42              0.0000000000
      5548        42  POPC      C26            -5.9891528283      -12.0828778811       -9.9993863787  MEMB      42              0.0000000000
      5549        42  POPC      H6R            -6.7122811823      -11.4560567741       -9.4306480998  MEMB      42              0.0000000000
      5550        42  POPC      H6S            -5.0518719350      -11.5274617472      -10.1986329264  MEMB      42              0.0000000000
      5551        42  POPC      C27            -5.6849805611      -13.2398855343       -9.1180509690  MEMB      42              0.0000000000
      5552        42  POPC      H7R            -5.3241691033      -12.7349418595       -8.1679586293  MEMB      42              0.0000000000
      5553        42  POPC      H7S            -4.8252128631      -13.8771817815       -9.4766994176  MEMB      42              0.0000000000
      5554        42  POPC      C28            -6.9297529686      -13.9110602285       -9.0440700228  MEMB      42              0.0000000000
      5555        42  POPC      H8R            -7.1470134306      -14.7739752268       -9.8334162989  MEMB      42              0.0000000000
      5556        42  POPC      H8S            -7.9447034942      -13.4776080653       -8.7930168310  MEMB      42              0.0000000000
      5557        42  POPC      C29            -6.7480295850      -14.7724759302       -7.9024130144  MEMB      42              0.0000000000
      5558        42  POPC      H91            -6.1119749348      -15.5094056058       -8.3584917235  MEMB      42              0.0000000000
      5559        42  POPC      C210           -6.5154007933      -14.2957765224       -6.5665197886  MEMB      42              0.0000000000
      5560        42  POPC      H101           -6.6430743616      -15.2313524088       -5.9155822703  MEMB      42              0.0000000000
      5561        42  POPC      C211           -7.2956163460      -13.2584318623       -5.8560011857  MEMB      42              0.0000000000
      5562        42  POPC      H11R           -7.2480985504      -12.3837997313       -6.5323353002  MEMB      42              0.0000000000
      5563        42  POPC      H11S           -6.4729886985      -13.0563422992       -5.0201441999  MEMB      42              0.0000000000
      5564        42  POPC      C212           -8.5885001158      -13.5717318008       -5.2759229979  MEMB      42              0.0000000000
      5565        42  POPC      H12R           -9.2525784231      -14.0988132156       -6.0065221946  MEMB      42              0.0000000000
      5566        42  POPC      H12S           -9.0649566483      -12.6465420906       -4.9053917202  MEMB      42              0.0000000000
      5567        42  POPC      C213           -8.5148083920      -14.4465521141       -4.0676320412  MEMB      42              0.0000000000
      5568        42  POPC      H13R           -8.4233598248      -15.4569520403       -4.4121478963  MEMB      42              0.0000000000
      5569        42  POPC      H13S           -9.3633528623      -14.7311709280       -3.4820442204  MEMB      42              0.0000000000
      5570        42  POPC      C214           -7.6899220183      -13.9029247638       -2.9513453513  MEMB      42              0.0000000000
      5571        42  POPC      H14R           -6.5972436131      -13.9872036904       -3.1529177662  MEMB      42              0.0000000000
      5572        42  POPC      H14S           -8.0561203994      -14.5424129860       -2.1059544660  MEMB      42              0.0000000000
      5573        42  POPC      C215           -7.8295615760      -12.6044980780       -2.3145575535  MEMB      42              0.0000000000
      5574        42  POPC      H15R           -8.8817567869      -12.3434537408       -2.1317401054  MEMB      42              0.0000000000
      5575        42  POPC      H15S           -7.2320703477      -11.9059617391       -2.9285747593  MEMB      42              0.0000000000
      5576        42  POPC      C216           -7.2212740107      -12.8401768757       -0.9762508875  MEMB      42              0.0000000000
      5577        42  POPC      H16R           -7.0623891750      -11.8407337217       -0.5222682061  MEMB      42              0.0000000000
      5578        42  POPC      H16S           -6.2461851788      -13.4082745213       -1.0181474096  MEMB      42              0.0000000000
      5579        42  POPC      C217           -8.1220257602      -13.6134195893       -0.0356426675  MEMB      42              0.0000000000
      5580        42  POPC      H17R           -7.2824901147      -13.4023337031        0.6046592647  MEMB      42              0.0000000000
      5581        42  POPC      H17S           -8.2411595428      -14.7019847198        0.0612737888  MEMB      42              0.0000000000
      5582        42  POPC      C218           -9.4332462508      -13.0730284635        0.3899911102  MEMB      42              0.0000000000
      5583        42  POPC      H18R           -9.5014551257      -11.9882908972        0.1737263002  MEMB      42              0.0000000000
      5584        42  POPC      H18S           -9.6663856506      -13.3159447449        1.4478719878  MEMB      42              0.0000000000
      5585        42  POPC      H18T          -10.2148995855      -13.6245596284       -0.1121247488  MEMB      42              0.0000000000
      5586        42  POPC      C33            -2.6760758052      -16.8243659111      -14.5703719381  MEMB      42              0.0000000000
      5587        42  POPC      H3X            -2.4551194046      -17.9170059783      -14.5734761221  MEMB      42              0.0000000000
      5588        42  POPC      H3Y            -3.6405491934      -16.6996376396      -14.0332695579  MEMB      42              0.0000000000
      5589        42  POPC      C34            -1.5754328871      -16.0246491033      -13.8355594244  MEMB      42              0.0000000000
      5590        42  POPC      H4X            -1.8425508773      -14.9476270386      -13.8972714585  MEMB      42              0.0000000000
      5591        42  POPC      H4Y            -0.5931637071      -16.1755947979      -14.3393351728  MEMB      42              0.0000000000
      5592        42  POPC      C35            -1.3786419775      -16.3320494902      -12.3476162876  MEMB      42              0.0000000000
      5593        42  POPC      H5X            -0.5889104779      -15.6699973598      -11.9377877703  MEMB      42              0.0000000000
      5594        42  POPC      H5Y            -0.9494737362      -17.3555435421      -12.3283499294  MEMB      42              0.0000000000
      5595        42  POPC      C36            -2.6873463449      -16.1290389678      -11.5481244219  MEMB      42              0.0000000000
      5596        42  POPC      H6X            -3.4345431238      -16.8602927178      -11.9413452277  MEMB      42              0.0000000000
      5597        42  POPC      H6Y            -3.0823379077      -15.1179294914      -11.7718424042  MEMB      42              0.0000000000
      5598        42  POPC      C37            -2.6397130940      -16.3093282855      -10.0112822232  MEMB      42              0.0000000000
      5599        42  POPC      H7X            -2.1197168192      -17.2271262465       -9.6754563251  MEMB      42              0.0000000000
      5600        42  POPC      H7Y            -3.6924653578      -16.3575370932       -9.6428618385  MEMB      42              0.0000000000
      5601        42  POPC      C38            -1.8770524884      -15.2775173619       -9.2262611281  MEMB      42              0.0000000000
      5602        42  POPC      H8X            -2.3402374215      -14.2937830970       -9.4526561900  MEMB      42              0.0000000000
      5603        42  POPC      H8Y            -0.8162799078      -15.2673486154       -9.5652572606  MEMB      42              0.0000000000
      5604        42  POPC      C39            -1.9369322908      -15.5829558537       -7.7213426308  MEMB      42              0.0000000000
      5605        42  POPC      H9X            -1.0243964736      -16.1453577071       -7.4223407973  MEMB      42              0.0000000000
      5606        42  POPC      H9Y            -2.8056468962      -16.2338819466       -7.4641218975  MEMB      42              0.0000000000
      5607        42  POPC      C310           -2.0812960291      -14.2598177555       -6.9706766890  MEMB      42              0.0000000000
      5608        42  POPC      H10X           -3.1009306952      -13.8694309202       -7.1999226104  MEMB      42              0.0000000000
      5609        42  POPC      H10Y           -1.3416754943      -13.5555373689       -7.4122285960  MEMB      42              0.0000000000
      5610        42  POPC      C311           -1.8523450633      -14.3310092075       -5.4540690658  MEMB      42              0.0000000000
      5611        42  POPC      H11X           -1.9061371551      -13.3061012428       -5.0259530296  MEMB      42              0.0000000000
      5612        42  POPC      H11Y           -0.8357262356      -14.7332274346       -5.2577571913  MEMB      42              0.0000000000
      5613        42  POPC      C312           -2.8964130702      -15.1917537519       -4.7503678934  MEMB      42              0.0000000000
      5614        42  POPC      H12X           -2.9308117739      -16.1554048064       -5.2769316991  MEMB      42              0.0000000000
      5615        42  POPC      H12Y           -3.8737548808      -14.6681888005       -4.8396375617  MEMB      42              0.0000000000
      5616        42  POPC      C313           -2.6186292532      -15.5342870677       -3.2949901335  MEMB      42              0.0000000000
      5617        42  POPC      H13X           -1.5390502152      -15.7330389128       -3.1393791173  MEMB      42              0.0000000000
      5618        42  POPC      H13Y           -3.1355697085      -16.4537020033       -2.9470861431  MEMB      42              0.0000000000
      5619        42  POPC      C314           -3.0691867338      -14.4268715597       -2.3899399045  MEMB      42              0.0000000000
      5620        42  POPC      H14X           -4.1802141072      -14.3015785604       -2.3718602483  MEMB      42              0.0000000000
      5621        42  POPC      H14Y           -2.6500197567      -13.4635367791       -2.7642109376  MEMB      42              0.0000000000
      5622        42  POPC      C315           -2.5389061838      -14.7486554834       -1.0130638620  MEMB      42              0.0000000000
      5623        42  POPC      H15X           -1.4374110594      -14.8733281290       -0.9886729378  MEMB      42              0.0000000000
      5624        42  POPC      H15Y           -3.0956663283      -15.5761004181       -0.5193177872  MEMB      42              0.0000000000
      5625        42  POPC      C316           -2.8068756663      -13.5945333555       -0.2089706893  MEMB      42              0.0000000000
      5626        42  POPC      H16X           -2.3677657130      -12.6791737801       -0.6918393540  MEMB      42              0.0000000000
      5627        42  POPC      H16Y           -2.4862820232      -13.6433201906        0.8478261459  MEMB      42              0.0000000000
      5628        42  POPC      H16Z           -3.9216712364      -13.5074647071       -0.2342829690  MEMB      42              0.0000000000
      5629        43  POPC      N             -12.2590927200        5.9548368798      -18.3187554704  MEMB      43              0.0000000000
      5630        43  POPC      C12           -12.8083563700        4.8388921265      -19.1937631715  MEMB      43              0.0000000000
      5631        43  POPC      H12A          -12.2995152832        3.9235929951      -18.9435936412  MEMB      43              0.0000000000
      5632        43  POPC      H12B          -12.5756920664        5.0569896727      -20.2390250189  MEMB      43              0.0000000000
      5633        43  POPC      C13           -12.8167851068        7.2865946936      -18.7115085129  MEMB      43              0.0000000000
      5634        43  POPC      H13A          -12.8418939812        7.3881209516      -19.7840017816  MEMB      43              0.0000000000
      5635        43  POPC      H13B          -13.8641784161        7.3741290428      -18.4100588961  MEMB      43              0.0000000000
      5636        43  POPC      H13C          -12.2405579538        8.0847233244      -18.2651117117  MEMB      43              0.0000000000
      5637        43  POPC      C14           -12.5572346226        5.7644999341      -16.8519970848  MEMB      43              0.0000000000
      5638        43  POPC      H14A          -12.2153148218        6.6164774361      -16.2686645421  MEMB      43              0.0000000000
      5639        43  POPC      H14B          -13.6363544767        5.6843233095      -16.6893382318  MEMB      43              0.0000000000
      5640        43  POPC      H14C          -12.0919254956        4.8841028762      -16.4307751632  MEMB      43              0.0000000000
      5641        43  POPC      C15           -10.7897109007        5.9740890375      -18.5272663735  MEMB      43              0.0000000000
      5642        43  POPC      H15A          -10.5574333639        6.1508565988      -19.5696523568  MEMB      43              0.0000000000
      5643        43  POPC      H15B          -10.3627284536        5.0257080969      -18.2231405670  MEMB      43              0.0000000000
      5644        43  POPC      H15C          -10.3426602217        6.7559081640      -17.9227054067  MEMB      43              0.0000000000
      5645        43  POPC      C11           -14.3071647699        4.5271760640      -19.1673862652  MEMB      43              0.0000000000
      5646        43  POPC      H11A          -14.6301743222        4.4242887715      -18.1050084421  MEMB      43              0.0000000000
      5647        43  POPC      H11B          -14.4638610079        3.5681774175      -19.7140690138  MEMB      43              0.0000000000
      5648        43  POPC      P             -16.5830140503        5.6362752712      -19.7238308898  MEMB      43              0.0000000000
      5649        43  POPC      O13           -17.2451946684        4.3832597636      -20.1888679502  MEMB      43              0.0000000000
      5650        43  POPC      O14           -16.9949092978        6.8972643056      -20.3435741245  MEMB      43              0.0000000000
      5651        43  POPC      O12           -15.0047369273        5.5446305246      -19.8530236385  MEMB      43              0.0000000000
      5652        43  POPC      O11           -16.7713155076        5.8113105808      -18.1707531331  MEMB      43              0.0000000000
      5653        43  POPC      C1            -17.2596114668        4.8197376139      -17.2759219280  MEMB      43              0.0000000000
      5654        43  POPC      HA            -16.8004311258        3.8262508587      -17.4897360029  MEMB      43              0.0000000000
      5655        43  POPC      HB            -18.3613091148        4.7097799810      -17.3722716679  MEMB      43              0.0000000000
      5656        43  POPC      C2            -17.0090597419        5.2213063555      -15.7906574065  MEMB      43              0.0000000000
      5657        43  POPC      HS            -17.9593824580        5.6429656533      -15.3826823521  MEMB      43              0.0000000000
      5658        43  POPC      O21           -15.9074291380        6.1205516240      -15.6594004304  MEMB      43              0.0000000000
      5659        43  POPC      C21           -15.9751329247        6.9174503355      -14.6177619656  MEMB      43              0.0000000000
      5660        43  POPC      O22           -16.8744170944        7.0071676284      -13.8013657740  MEMB      43              0.0000000000
      5661        43  POPC      C22           -14.7091339019        7.7439534111      -14.6194932258  MEMB      43              0.0000000000
      5662        43  POPC      H2R           -14.7888973325        8.3956257576      -15.5184557223  MEMB      43              0.0000000000
      5663        43  POPC      H2S           -13.8485582882        7.0567021950      -14.7310964392  MEMB      43              0.0000000000
      5664        43  POPC      C3            -16.7170842801        4.0047130483      -14.9595799254  MEMB      43              0.0000000000
      5665        43  POPC      HX            -15.8797026634        3.4243380370      -15.4263895599  MEMB      43              0.0000000000
      5666        43  POPC      HY            -17.6057147707        3.3388420361      -15.0657693301  MEMB      43              0.0000000000
      5667        43  POPC      O31           -16.3888219451        4.3220908954      -13.5698671958  MEMB      43              0.0000000000
      5668        43  POPC      C31           -17.3849762451        4.1132194680      -12.6862450543  MEMB      43              0.0000000000
      5669        43  POPC      O32           -18.4861495426        3.6756840098      -12.9569729443  MEMB      43              0.0000000000
      5670        43  POPC      C32           -16.9475041668        4.5727586464      -11.2971909333  MEMB      43              0.0000000000
      5671        43  POPC      H2X           -16.6481846848        5.6330897774      -11.4221137881  MEMB      43              0.0000000000
      5672        43  POPC      H2Y           -16.0544676050        3.9941765847      -10.9826925290  MEMB      43              0.0000000000
      5673        43  POPC      C23           -14.5638027663        8.5715475284      -13.3270586693  MEMB      43              0.0000000000
      5674        43  POPC      H3R           -15.5605930754        8.9276492101      -12.9755733138  MEMB      43              0.0000000000
      5675        43  POPC      H3S           -13.9721973410        9.4826635458      -13.5683293593  MEMB      43              0.0000000000
      5676        43  POPC      C24           -13.8582412375        7.7962721658      -12.1949249427  MEMB      43              0.0000000000
      5677        43  POPC      H4R           -12.8438225294        7.4694654954      -12.5149855618  MEMB      43              0.0000000000
      5678        43  POPC      H4S           -14.4545983369        6.8900231710      -11.9520701871  MEMB      43              0.0000000000
      5679        43  POPC      C25           -13.6873041853        8.6507642478      -10.9281729240  MEMB      43              0.0000000000
      5680        43  POPC      H5R           -14.6879958274        9.0894735379      -10.7000291906  MEMB      43              0.0000000000
      5681        43  POPC      H5S           -12.9937035640        9.4657703905      -11.2041610463  MEMB      43              0.0000000000
      5682        43  POPC      C26           -13.0847574512        7.9121236479       -9.7027926520  MEMB      43              0.0000000000
      5683        43  POPC      H6R           -12.1149619368        7.4633795465       -9.9815027065  MEMB      43              0.0000000000
      5684        43  POPC      H6S           -13.8154235836        7.1305898453       -9.4001636278  MEMB      43              0.0000000000
      5685        43  POPC      C27           -12.7628857241        8.7307196072       -8.4438915571  MEMB      43              0.0000000000
      5686        43  POPC      H7R           -12.1367040441        9.6208288131       -8.6970773521  MEMB      43              0.0000000000
      5687        43  POPC      H7S           -12.2596981832        8.1811062856       -7.6288715587  MEMB      43              0.0000000000
      5688        43  POPC      C28           -14.0408352660        9.2175535856       -7.8437481024  MEMB      43              0.0000000000
      5689        43  POPC      H8R           -14.4018981575        9.6817686325       -8.7713201171  MEMB      43              0.0000000000
      5690        43  POPC      H8S           -13.7896898860        9.9916271941       -7.0842779645  MEMB      43              0.0000000000
      5691        43  POPC      C29           -15.2232904863        8.4135694522       -7.4135412431  MEMB      43              0.0000000000
      5692        43  POPC      H91           -16.0108599508        8.2823664134       -8.1796821572  MEMB      43              0.0000000000
      5693        43  POPC      C210          -15.4818866723        8.1489642022       -6.1373037359  MEMB      43              0.0000000000
      5694        43  POPC      H101          -16.4096261820        7.6306772689       -5.8984699530  MEMB      43              0.0000000000
      5695        43  POPC      C211          -14.6450208721        8.5843794405       -4.9614500256  MEMB      43              0.0000000000
      5696        43  POPC      H11R          -15.2930769081        8.6959814469       -4.0669031387  MEMB      43              0.0000000000
      5697        43  POPC      H11S          -14.1445885014        9.5698085413       -5.0981833410  MEMB      43              0.0000000000
      5698        43  POPC      C212          -13.5849902044        7.5010994594       -4.7090555041  MEMB      43              0.0000000000
      5699        43  POPC      H12R          -12.8058438890        7.9010116249       -4.0245985676  MEMB      43              0.0000000000
      5700        43  POPC      H12S          -13.0728157007        7.2222744984       -5.6572513510  MEMB      43              0.0000000000
      5701        43  POPC      C213          -14.2398730374        6.2712263318       -4.0715827193  MEMB      43              0.0000000000
      5702        43  POPC      H13R          -15.0140939010        5.8638863286       -4.7595735998  MEMB      43              0.0000000000
      5703        43  POPC      H13S          -14.7662428385        6.6318354117       -3.1605796172  MEMB      43              0.0000000000
      5704        43  POPC      C214          -13.3040255567        5.1128069176       -3.7020626653  MEMB      43              0.0000000000
      5705        43  POPC      H14R          -12.9348850910        4.6153806007       -4.6250332703  MEMB      43              0.0000000000
      5706        43  POPC      H14S          -13.9120717310        4.3723684643       -3.1300895008  MEMB      43              0.0000000000
      5707        43  POPC      C215          -12.0754907837        5.4672731528       -2.8676074825  MEMB      43              0.0000000000
      5708        43  POPC      H15R          -11.2518951230        5.8699548173       -3.4942011372  MEMB      43              0.0000000000
      5709        43  POPC      H15S          -11.7027614259        4.5069213877       -2.4339109267  MEMB      43              0.0000000000
      5710        43  POPC      C216          -12.3470433162        6.3826521121       -1.6871923348  MEMB      43              0.0000000000
      5711        43  POPC      H16R          -13.4273485711        6.5679914710       -1.5246295198  MEMB      43              0.0000000000
      5712        43  POPC      H16S          -11.8771960409        7.3861333323       -1.8431506675  MEMB      43              0.0000000000
      5713        43  POPC      C217          -11.8409456840        5.6763110859       -0.4404977202  MEMB      43              0.0000000000
      5714        43  POPC      H17R          -12.1715655419        4.6457952524       -0.2633885088  MEMB      43              0.0000000000
      5715        43  POPC      H17S          -12.2965548358        6.1275759570        0.3955450443  MEMB      43              0.0000000000
      5716        43  POPC      C218          -10.3860535279        5.8513256975       -0.2548206894  MEMB      43              0.0000000000
      5717        43  POPC      H18R          -10.1471362685        6.8888571594       -0.1766647798  MEMB      43              0.0000000000
      5718        43  POPC      H18S           -9.8844029517        5.3974166114       -1.1423651334  MEMB      43              0.0000000000
      5719        43  POPC      H18T           -9.9821780749        5.5107107443        0.7138588316  MEMB      43              0.0000000000
      5720        43  POPC      C33           -18.0634715636        4.4436277257      -10.2238517322  MEMB      43              0.0000000000
      5721        43  POPC      H3X           -18.3760998632        3.3749391510      -10.1448879015  MEMB      43              0.0000000000
      5722        43  POPC      H3Y           -18.9734662876        5.0114799975      -10.5121639384  MEMB      43              0.0000000000
      5723        43  POPC      C34           -17.5490328956        4.9539615348       -8.8672620367  MEMB      43              0.0000000000
      5724        43  POPC      H4X           -17.1130453463        5.9660871897       -8.9656239474  MEMB      43              0.0000000000
      5725        43  POPC      H4Y           -16.7039010817        4.2867111735       -8.5767028568  MEMB      43              0.0000000000
      5726        43  POPC      C35           -18.5530767981        4.9774834965       -7.7098543914  MEMB      43              0.0000000000
      5727        43  POPC      H5X           -19.2076956116        4.0714929687       -7.7265957998  MEMB      43              0.0000000000
      5728        43  POPC      H5Y           -19.2439481804        5.8401271153       -7.7985932121  MEMB      43              0.0000000000
      5729        43  POPC      C36           -17.7524224355        5.0931343410       -6.3935353092  MEMB      43              0.0000000000
      5730        43  POPC      H6X           -17.1950630861        6.0251144625       -6.3701211215  MEMB      43              0.0000000000
      5731        43  POPC      H6Y           -17.0000111929        4.2818664636       -6.2945028687  MEMB      43              0.0000000000
      5732        43  POPC      C37           -18.6067992886        5.0342471837       -5.1539120160  MEMB      43              0.0000000000
      5733        43  POPC      H7X           -19.4250181960        4.4902458444       -5.6536921782  MEMB      43              0.0000000000
      5734        43  POPC      H7Y           -19.0351138679        6.0092263678       -4.8617667631  MEMB      43              0.0000000000
      5735        43  POPC      C38           -17.8417849896        4.3496512442       -3.9872089972  MEMB      43              0.0000000000
      5736        43  POPC      H8X           -16.9004774706        4.9258631003       -3.8750918506  MEMB      43              0.0000000000
      5737        43  POPC      H8Y           -17.5863491022        3.2959467072       -4.2425548646  MEMB      43              0.0000000000
      5738        43  POPC      C39           -18.4135967113        4.3612888483       -2.5647833847  MEMB      43              0.0000000000
      5739        43  POPC      H9X           -17.7995161779        3.7817489062       -1.8466457426  MEMB      43              0.0000000000
      5740        43  POPC      H9Y           -19.2861844865        3.7853710433       -2.5014536043  MEMB      43              0.0000000000
      5741        43  POPC      C310          -19.0269028730        5.6692212399       -2.1013428407  MEMB      43              0.0000000000
      5742        43  POPC      H10X          -19.6461883808        5.5062854355       -1.1705578252  MEMB      43              0.0000000000
      5743        43  POPC      H10Y          -19.6811792566        6.1265961950       -2.8709831697  MEMB      43              0.0000000000
      5744        43  POPC      C311          -18.0290778603        6.5205360036       -1.5825332281  MEMB      43              0.0000000000
      5745        43  POPC      H11X          -18.4626452218        7.5287798749       -1.4106144434  MEMB      43              0.0000000000
      5746        43  POPC      H11Y          -17.2115583610        6.5304297254       -2.3334843141  MEMB      43              0.0000000000
      5747        43  POPC      C312          -17.6338332256        5.8852546903       -0.2687589738  MEMB      43              0.0000000000
      5748        43  POPC      H12X          -17.6231637873        4.7844014085       -0.1657733007  MEMB      43              0.0000000000
      5749        43  POPC      H12Y          -18.4922024892        6.2199455891        0.3506968765  MEMB      43              0.0000000000
      5750        43  POPC      C313          -16.2681707180        6.4868837276       -0.2530613421  MEMB      43              0.0000000000
      5751        43  POPC      H13X          -16.5819047865        7.5512662277       -0.1540591804  MEMB      43              0.0000000000
      5752        43  POPC      H13Y          -15.7119241206        6.2503321950       -1.1762310066  MEMB      43              0.0000000000
      5753        43  POPC      C314          -15.1926395415        6.1653062181        0.7240369538  MEMB      43              0.0000000000
      5754        43  POPC      H14X          -15.6147213844        6.9410697452        1.3579075808  MEMB      43              0.0000000000
      5755        43  POPC      H14Y          -14.2378190863        6.6059823110        0.6175711784  MEMB      43              0.0000000000
      5756        43  POPC      C315          -15.0349495380        4.6875458833        1.1596895632  MEMB      43              0.0000000000
      5757        43  POPC      H15X          -14.9919823053        4.0423695712        0.2814406166  MEMB      43              0.0000000000
      5758        43  POPC      H15Y          -16.0656595283        4.4764462859        1.4182687611  MEMB      43              0.0000000000
      5759        43  POPC      C316          -14.0162013253        4.2253274280        2.2600722700  MEMB      43              0.0000000000
      5760        43  POPC      H16X          -14.2311544994        3.2669166443        2.7911298059  MEMB      43              0.0000000000
      5761        43  POPC      H16Y          -13.8282444615        4.8744535510        3.1055590083  MEMB      43              0.0000000000
      5762        43  POPC      H16Z          -13.0057698771        4.2671910387        1.8362685826  MEMB      43              0.0000000000
      5763        44  POPC      N              15.6922101802        3.4040663549      -19.6016709801  MEMB      44              0.0000000000
      5764        44  POPC      C12            16.8546072410        2.5270510371      -20.0586324965  MEMB      44              0.0000000000
      5765        44  POPC      H12A           17.6872312690        3.1773898587      -20.2953749622  MEMB      44              0.0000000000
      5766        44  POPC      H12B           16.5534014692        1.9726922979      -20.9398741216  MEMB      44              0.0000000000
      5767        44  POPC      C13            15.9925840373        3.9846304285      -18.2437588269  MEMB      44              0.0000000000
      5768        44  POPC      H13A           15.2125483767        4.6639152664      -17.9107140566  MEMB      44              0.0000000000
      5769        44  POPC      H13B           16.0594880161        3.1684296528      -17.5174962205  MEMB      44              0.0000000000
      5770        44  POPC      H13C           16.9274960010        4.5271642692      -18.2252368223  MEMB      44              0.0000000000
      5771        44  POPC      C14            15.4070011174        4.4993009837      -20.5736546245  MEMB      44              0.0000000000
      5772        44  POPC      H14A           15.2339974504        4.1343559823      -21.5855326033  MEMB      44              0.0000000000
      5773        44  POPC      H14B           14.5455396960        5.0807226883      -20.2634671498  MEMB      44              0.0000000000
      5774        44  POPC      H14C           16.2283467938        5.2121522415      -20.6374713418  MEMB      44              0.0000000000
      5775        44  POPC      C15            14.4744958161        2.5551155550      -19.4588696384  MEMB      44              0.0000000000
      5776        44  POPC      H15A           14.2542742910        2.0774809350      -20.4064793438  MEMB      44              0.0000000000
      5777        44  POPC      H15B           13.6061330412        3.1111802314      -19.1347359991  MEMB      44              0.0000000000
      5778        44  POPC      H15C           14.6893589808        1.7496204070      -18.7451758896  MEMB      44              0.0000000000
      5779        44  POPC      C11            17.4128849013        1.4871571758      -19.0575100608  MEMB      44              0.0000000000
      5780        44  POPC      H11A           17.9199099560        2.0807099415      -18.2772480929  MEMB      44              0.0000000000
      5781        44  POPC      H11B           18.2004190526        0.8585214921      -19.5449681394  MEMB      44              0.0000000000
      5782        44  POPC      P              16.3712163065       -0.8562304944      -18.4373266467  MEMB      44              0.0000000000
      5783        44  POPC      O13            17.4871237470       -1.4714867779      -17.7023217453  MEMB      44              0.0000000000
      5784        44  POPC      O14            16.1914854867       -1.3134587489      -19.8215223371  MEMB      44              0.0000000000
      5785        44  POPC      O12            16.3869187623        0.7197143790      -18.4433780584  MEMB      44              0.0000000000
      5786        44  POPC      O11            15.0265086080       -1.1688440573      -17.6833152930  MEMB      44              0.0000000000
      5787        44  POPC      C1             14.7351113850       -2.5394514322      -17.3909527218  MEMB      44              0.0000000000
      5788        44  POPC      HA             15.2778872131       -3.2725912689      -18.0295416967  MEMB      44              0.0000000000
      5789        44  POPC      HB             13.6747024702       -2.7132754542      -17.6145677098  MEMB      44              0.0000000000
      5790        44  POPC      C2             14.8847458242       -2.9277986024      -15.8912985072  MEMB      44              0.0000000000
      5791        44  POPC      HS             14.1965955156       -3.7585982285      -15.6589953002  MEMB      44              0.0000000000
      5792        44  POPC      O21            14.7399461971       -1.8275469554      -14.9464208920  MEMB      44              0.0000000000
      5793        44  POPC      C21            13.6524496152       -1.0664014509      -15.0454994830  MEMB      44              0.0000000000
      5794        44  POPC      O22            12.7523092645       -1.2257318789      -15.8314533702  MEMB      44              0.0000000000
      5795        44  POPC      C22            13.5616531381        0.0506241375      -14.0392640444  MEMB      44              0.0000000000
      5796        44  POPC      H2R            13.4004259959       -0.2909451514      -13.0140302085  MEMB      44              0.0000000000
      5797        44  POPC      H2S            12.6288055256        0.6174530110      -14.2358858901  MEMB      44              0.0000000000
      5798        44  POPC      C3             16.2377275112       -3.6315051653      -15.6408930794  MEMB      44              0.0000000000
      5799        44  POPC      HX             17.1096193416       -3.0430812027      -15.9811298568  MEMB      44              0.0000000000
      5800        44  POPC      HY             16.1978546106       -4.5464666054      -16.2828513889  MEMB      44              0.0000000000
      5801        44  POPC      O31            16.3064715424       -4.0471320896      -14.2625244022  MEMB      44              0.0000000000
      5802        44  POPC      C31            16.7680790147       -3.1109392753      -13.4411152944  MEMB      44              0.0000000000
      5803        44  POPC      O32            17.3495065971       -2.0935787157      -13.7530942998  MEMB      44              0.0000000000
      5804        44  POPC      C32            16.5001575303       -3.5391826655      -12.0054768617  MEMB      44              0.0000000000
      5805        44  POPC      H2X            16.9957817548       -2.8012252240      -11.3499781437  MEMB      44              0.0000000000
      5806        44  POPC      H2Y            17.0005606008       -4.5072875945      -11.8466724658  MEMB      44              0.0000000000
      5807        44  POPC      C23            14.7963510903        0.9152816520      -14.2410791047  MEMB      44              0.0000000000
      5808        44  POPC      H3R            14.6963120439        1.4340715019      -15.2280879838  MEMB      44              0.0000000000
      5809        44  POPC      H3S            15.7070608175        0.2746852009      -14.3016700366  MEMB      44              0.0000000000
      5810        44  POPC      C24            14.9058808808        1.9466251799      -13.1285744921  MEMB      44              0.0000000000
      5811        44  POPC      H4R            13.8750281782        2.2702560374      -12.8668030810  MEMB      44              0.0000000000
      5812        44  POPC      H4S            15.4587840985        2.8098167750      -13.5584810105  MEMB      44              0.0000000000
      5813        44  POPC      C25            15.6315044307        1.4596634681      -11.8627689867  MEMB      44              0.0000000000
      5814        44  POPC      H5R            15.1867361992        0.5292018511      -11.4640999271  MEMB      44              0.0000000000
      5815        44  POPC      H5S            15.5370358512        2.2539106894      -11.0880871561  MEMB      44              0.0000000000
      5816        44  POPC      C26            17.1211117443        1.2465824768      -12.1196110402  MEMB      44              0.0000000000
      5817        44  POPC      H6R            17.3440800826        2.0036641036      -12.8710853443  MEMB      44              0.0000000000
      5818        44  POPC      H6S            17.3486495982        0.2771304582      -12.6087736924  MEMB      44              0.0000000000
      5819        44  POPC      C27            18.0403384729        1.5244840054      -10.9270655810  MEMB      44              0.0000000000
      5820        44  POPC      H7R            17.9397478840        2.5946457134      -10.6287155006  MEMB      44              0.0000000000
      5821        44  POPC      H7S            19.0899794177        1.3868534700      -11.2631177780  MEMB      44              0.0000000000
      5822        44  POPC      C28            17.7575802973        0.6446194401       -9.7041005308  MEMB      44              0.0000000000
      5823        44  POPC      H8R            16.6669287057        0.6577309772       -9.4843839838  MEMB      44              0.0000000000
      5824        44  POPC      H8S            18.2900643914        1.1057273930       -8.8441229648  MEMB      44              0.0000000000
      5825        44  POPC      C29            18.2306575200       -0.7701684051       -9.8446308965  MEMB      44              0.0000000000
      5826        44  POPC      H91            18.7419226655       -1.0151901837      -10.7944153278  MEMB      44              0.0000000000
      5827        44  POPC      C210           18.0115710569       -1.7088700286       -8.9034204542  MEMB      44              0.0000000000
      5828        44  POPC      H101           18.3778232993       -2.7306180955       -9.0882205265  MEMB      44              0.0000000000
      5829        44  POPC      C211           17.2726914514       -1.4853881677       -7.5934064525  MEMB      44              0.0000000000
      5830        44  POPC      H11R           16.2947124261       -2.0169530065       -7.6260891224  MEMB      44              0.0000000000
      5831        44  POPC      H11S           17.0087433804       -0.4136473188       -7.4322146488  MEMB      44              0.0000000000
      5832        44  POPC      C212           18.0327271273       -1.9776405945       -6.3351010560  MEMB      44              0.0000000000
      5833        44  POPC      H12R           18.9866597812       -1.4142631454       -6.2217764276  MEMB      44              0.0000000000
      5834        44  POPC      H12S           18.2869052293       -3.0529005829       -6.4672405823  MEMB      44              0.0000000000
      5835        44  POPC      C213           17.2062212167       -1.8140503051       -5.0378162374  MEMB      44              0.0000000000
      5836        44  POPC      H13R           16.2920155153       -2.4388120259       -5.1425383804  MEMB      44              0.0000000000
      5837        44  POPC      H13S           16.8709831658       -0.7534084921       -4.9858227029  MEMB      44              0.0000000000
      5838        44  POPC      C214           17.9625428921       -2.1684434521       -3.7245798355  MEMB      44              0.0000000000
      5839        44  POPC      H14R           18.8760801767       -1.5353073186       -3.6671712392  MEMB      44              0.0000000000
      5840        44  POPC      H14S           18.2909577574       -3.2284872860       -3.7483798099  MEMB      44              0.0000000000
      5841        44  POPC      C215           17.1520928318       -1.8977144499       -2.4336320014  MEMB      44              0.0000000000
      5842        44  POPC      H15R           16.1852440556       -2.4411464357       -2.4589780578  MEMB      44              0.0000000000
      5843        44  POPC      H15S           16.8994125047       -0.8156246945       -2.4777859189  MEMB      44              0.0000000000
      5844        44  POPC      C216           17.8360952086       -2.1896825202       -1.0646768103  MEMB      44              0.0000000000
      5845        44  POPC      H16R           17.1522625455       -1.7765675256       -0.2813804825  MEMB      44              0.0000000000
      5846        44  POPC      H16S           18.8048344721       -1.6686297751       -0.9408481472  MEMB      44              0.0000000000
      5847        44  POPC      C217           17.9772874197       -3.6609632920       -0.6660803822  MEMB      44              0.0000000000
      5848        44  POPC      H17R           18.5690319044       -3.7585671858        0.2733627758  MEMB      44              0.0000000000
      5849        44  POPC      H17S           18.5072067102       -4.2561936544       -1.4457833643  MEMB      44              0.0000000000
      5850        44  POPC      C218           16.6049962298       -4.2409605362       -0.3877889086  MEMB      44              0.0000000000
      5851        44  POPC      H18R           16.0155225512       -3.6617953672        0.3472466476  MEMB      44              0.0000000000
      5852        44  POPC      H18S           16.7121537057       -5.2666888616        0.0206651171  MEMB      44              0.0000000000
      5853        44  POPC      H18T           16.0395620296       -4.2414159450       -1.3457914820  MEMB      44              0.0000000000
      5854        44  POPC      C33            15.0091680551       -3.5955279832      -11.6314201640  MEMB      44              0.0000000000
      5855        44  POPC      H3X            14.8561021238       -4.3105058462      -10.7932477638  MEMB      44              0.0000000000
      5856        44  POPC      H3Y            14.3554606668       -3.9562643670      -12.4466581733  MEMB      44              0.0000000000
      5857        44  POPC      C34            14.5787230600       -2.2364100676      -11.1126324795  MEMB      44              0.0000000000
      5858        44  POPC      H4X            14.3155000009       -1.5403045151      -11.9168621725  MEMB      44              0.0000000000
      5859        44  POPC      H4Y            15.3779070938       -1.8059935598      -10.4633870916  MEMB      44              0.0000000000
      5860        44  POPC      C35            13.4248576308       -2.3625230032      -10.1870988567  MEMB      44              0.0000000000
      5861        44  POPC      H5X            13.8932474476       -2.8336099467       -9.2990777990  MEMB      44              0.0000000000
      5862        44  POPC      H5Y            12.7985327643       -3.1980969250      -10.4631869765  MEMB      44              0.0000000000
      5863        44  POPC      C36            12.7068017918       -1.0193418524       -9.8951449421  MEMB      44              0.0000000000
      5864        44  POPC      H6X            11.7461668822       -1.1001666979       -9.3416420912  MEMB      44              0.0000000000
      5865        44  POPC      H6Y            12.3487008275       -0.5260478443      -10.8140834769  MEMB      44              0.0000000000
      5866        44  POPC      C37            13.6036278228       -0.1163965930       -9.0403118333  MEMB      44              0.0000000000
      5867        44  POPC      H7X            14.5948220275       -0.0781157908       -9.5145409770  MEMB      44              0.0000000000
      5868        44  POPC      H7Y            13.8461659864       -0.5395873595       -8.0466847759  MEMB      44              0.0000000000
      5869        44  POPC      C38            12.9778502822        1.2712880483       -8.9357094013  MEMB      44              0.0000000000
      5870        44  POPC      H8X            11.9361251482        1.2071971311       -8.5461857679  MEMB      44              0.0000000000
      5871        44  POPC      H8Y            12.9287035778        1.6363785897       -9.9853936406  MEMB      44              0.0000000000
      5872        44  POPC      C39            13.7995084961        2.2876271734       -8.1494427364  MEMB      44              0.0000000000
      5873        44  POPC      H9X            13.2820481303        3.2721353762       -8.1607665452  MEMB      44              0.0000000000
      5874        44  POPC      H9Y            14.7795931344        2.4033038651       -8.6695886346  MEMB      44              0.0000000000
      5875        44  POPC      C310           14.1168977148        1.9019900363       -6.7163924896  MEMB      44              0.0000000000
      5876        44  POPC      H10X           14.6439087868        0.9175127451       -6.7016835787  MEMB      44              0.0000000000
      5877        44  POPC      H10Y           13.2252461425        1.8299198414       -6.0539443343  MEMB      44              0.0000000000
      5878        44  POPC      C311           15.0564526036        2.9098817751       -6.1095581330  MEMB      44              0.0000000000
      5879        44  POPC      H11X           14.5276892663        3.8311371532       -5.7681786384  MEMB      44              0.0000000000
      5880        44  POPC      H11Y           15.8847795027        3.2221608332       -6.7919326191  MEMB      44              0.0000000000
      5881        44  POPC      C312           15.6952046711        2.2495187657       -4.9419835308  MEMB      44              0.0000000000
      5882        44  POPC      H12X           16.4411292162        1.4903127659       -5.2927178974  MEMB      44              0.0000000000
      5883        44  POPC      H12Y           14.9889942042        1.7269504768       -4.2555645825  MEMB      44              0.0000000000
      5884        44  POPC      C313           16.3582253089        3.3587575772       -4.2204320297  MEMB      44              0.0000000000
      5885        44  POPC      H13X           15.6748354570        4.1228122863       -3.7823020385  MEMB      44              0.0000000000
      5886        44  POPC      H13Y           17.0633260709        3.8757609360       -4.9239319217  MEMB      44              0.0000000000
      5887        44  POPC      C314           17.1550445334        2.6623705980       -3.1877401595  MEMB      44              0.0000000000
      5888        44  POPC      H14X           17.9667665359        3.4089593467       -3.2379986815  MEMB      44              0.0000000000
      5889        44  POPC      H14Y           17.4466736853        1.6381955006       -3.4820016573  MEMB      44              0.0000000000
      5890        44  POPC      C315           16.5214973020        2.5404694924       -1.8045391704  MEMB      44              0.0000000000
      5891        44  POPC      H15X           15.5241956278        2.7147850132       -2.2234622278  MEMB      44              0.0000000000
      5892        44  POPC      H15Y           16.5880433074        3.5693500089       -1.3982808383  MEMB      44              0.0000000000
      5893        44  POPC      C316           16.7193290051        1.3021525035       -0.6851026315  MEMB      44              0.0000000000
      5894        44  POPC      H16X           17.1765570074        1.6405598469        0.2659495200  MEMB      44              0.0000000000
      5895        44  POPC      H16Y           17.2191406400        0.3732995477       -0.9063581293  MEMB      44              0.0000000000
      5896        44  POPC      H16Z           16.0025112319        1.1067616119        0.1175455847  MEMB      44              0.0000000000
      5897        45  POPC      N              12.8594886467       -6.2267550920      -20.2171626222  MEMB      45              0.0000000000
      5898        45  POPC      C12            13.6279087646       -5.9090340160      -18.9358369936  MEMB      45              0.0000000000
      5899        45  POPC      H12A           13.0072430391       -5.2965684134      -18.2991513357  MEMB      45              0.0000000000
      5900        45  POPC      H12B           14.4759523110       -5.2888592826      -19.1968970043  MEMB      45              0.0000000000
      5901        45  POPC      C13            13.8094262281       -6.7615831095      -21.2457801982  MEMB      45              0.0000000000
      5902        45  POPC      H13A           14.2194601106       -7.7122411511      -20.8999458475  MEMB      45              0.0000000000
      5903        45  POPC      H13B           13.2935428967       -6.8974487673      -22.1810589519  MEMB      45              0.0000000000
      5904        45  POPC      H13C           14.6580521960       -6.1133423587      -21.4180015566  MEMB      45              0.0000000000
      5905        45  POPC      C14            11.7969412279       -7.2504535014      -20.0323190326  MEMB      45              0.0000000000
      5906        45  POPC      H14A           12.2525156215       -8.1712159873      -19.6763068873  MEMB      45              0.0000000000
      5907        45  POPC      H14B           11.0379862447       -6.9210276957      -19.3323715918  MEMB      45              0.0000000000
      5908        45  POPC      H14C           11.3196807062       -7.4769408860      -20.9847549804  MEMB      45              0.0000000000
      5909        45  POPC      C15            12.2047117306       -4.9803944048      -20.7264595537  MEMB      45              0.0000000000
      5910        45  POPC      H15A           12.9336593081       -4.2314097095      -20.9643504270  MEMB      45              0.0000000000
      5911        45  POPC      H15B           11.5658711384       -4.5186544467      -19.9691062629  MEMB      45              0.0000000000
      5912        45  POPC      H15C           11.5956806661       -5.1532196662      -21.6017962561  MEMB      45              0.0000000000
      5913        45  POPC      C11            14.1397831634       -7.0350849648      -18.0210144242  MEMB      45              0.0000000000
      5914        45  POPC      H11A           13.2851675694       -7.5375532964      -17.5070890589  MEMB      45              0.0000000000
      5915        45  POPC      H11B           14.7524626752       -6.5335275228      -17.2275534911  MEMB      45              0.0000000000
      5916        45  POPC      P              15.9441415182       -8.8575631584      -17.9678735275  MEMB      45              0.0000000000
      5917        45  POPC      O13            16.7211947182       -8.0710696256      -16.9903219696  MEMB      45              0.0000000000
      5918        45  POPC      O14            16.6481107578       -9.6674505231      -18.9623182652  MEMB      45              0.0000000000
      5919        45  POPC      O12            14.9205172819       -7.9515047463      -18.7764735898  MEMB      45              0.0000000000
      5920        45  POPC      O11            14.9314431759       -9.7671340172      -17.1734279547  MEMB      45              0.0000000000
      5921        45  POPC      C1             13.9366897037      -10.4669585503      -17.8961508818  MEMB      45              0.0000000000
      5922        45  POPC      HA             14.5364403924      -11.1197071003      -18.4927209265  MEMB      45              0.0000000000
      5923        45  POPC      HB             13.4467815979       -9.8595416611      -18.6854941876  MEMB      45              0.0000000000
      5924        45  POPC      C2             12.8041475305      -11.0213145416      -16.9671053569  MEMB      45              0.0000000000
      5925        45  POPC      HS             11.8557840883      -11.0398298242      -17.5688169708  MEMB      45              0.0000000000
      5926        45  POPC      O21            12.8068694376      -10.1765772524      -15.8960820076  MEMB      45              0.0000000000
      5927        45  POPC      C21            11.7558792111       -9.6494830114      -15.5963265237  MEMB      45              0.0000000000
      5928        45  POPC      O22            10.6345895680       -9.8433065982      -16.0515629058  MEMB      45              0.0000000000
      5929        45  POPC      C22            12.2283394730       -8.6644528809      -14.5462188926  MEMB      45              0.0000000000
      5930        45  POPC      H2R            12.1267397666       -7.6550075304      -14.9735714222  MEMB      45              0.0000000000
      5931        45  POPC      H2S            13.2704432974       -8.8159109092      -14.2621182879  MEMB      45              0.0000000000
      5932        45  POPC      C3             12.8636170350      -12.3864910259      -16.3137366963  MEMB      45              0.0000000000
      5933        45  POPC      HX             12.6234122400      -12.9962028770      -17.1109731818  MEMB      45              0.0000000000
      5934        45  POPC      HY             12.0604503039      -12.6949700695      -15.6061222551  MEMB      45              0.0000000000
      5935        45  POPC      O31            14.1891948777      -12.6485792463      -15.8782108448  MEMB      45              0.0000000000
      5936        45  POPC      C31            14.2300406050      -12.3062237805      -14.6124355447  MEMB      45              0.0000000000
      5937        45  POPC      O32            13.3631858538      -12.4736846302      -13.7843447912  MEMB      45              0.0000000000
      5938        45  POPC      C32            15.5955036494      -11.9916393143      -14.2873102965  MEMB      45              0.0000000000
      5939        45  POPC      H2X            16.2579037026      -12.0967488999      -15.1700310623  MEMB      45              0.0000000000
      5940        45  POPC      H2Y            15.6353384278      -12.7620969150      -13.4871416474  MEMB      45              0.0000000000
      5941        45  POPC      C23            11.3999313158       -8.8174120143      -13.3203683400  MEMB      45              0.0000000000
      5942        45  POPC      H3R            10.4826899220       -9.1651239853      -13.8004087141  MEMB      45              0.0000000000
      5943        45  POPC      H3S            11.2751146689       -7.8749966881      -12.7390949840  MEMB      45              0.0000000000
      5944        45  POPC      C24            11.4427269575      -10.0492264329      -12.5033455008  MEMB      45              0.0000000000
      5945        45  POPC      H4R            11.3953639615      -10.9578585016      -13.1545369361  MEMB      45              0.0000000000
      5946        45  POPC      H4S            10.5921218929      -10.0557022885      -11.7721453637  MEMB      45              0.0000000000
      5947        45  POPC      C25            12.6692999169      -10.0494028695      -11.7482473411  MEMB      45              0.0000000000
      5948        45  POPC      H5R            12.7988946030       -9.0366691239      -11.3075825599  MEMB      45              0.0000000000
      5949        45  POPC      H5S            13.4484623119      -10.2646724982      -12.5114219947  MEMB      45              0.0000000000
      5950        45  POPC      C26            12.4222252952      -11.0950692480      -10.7173794083  MEMB      45              0.0000000000
      5951        45  POPC      H6R            12.1834135023      -12.0572708404      -11.2246784513  MEMB      45              0.0000000000
      5952        45  POPC      H6S            11.5386116774      -10.8200550497      -10.0915844471  MEMB      45              0.0000000000
      5953        45  POPC      C27            13.6211743749      -11.1847457112       -9.8489955856  MEMB      45              0.0000000000
      5954        45  POPC      H7R            13.7846802794      -10.2159039636       -9.3316215597  MEMB      45              0.0000000000
      5955        45  POPC      H7S            14.4979102458      -11.3941496338      -10.5131448462  MEMB      45              0.0000000000
      5956        45  POPC      C28            13.3656988441      -12.2954637040       -8.8746350590  MEMB      45              0.0000000000
      5957        45  POPC      H8R            13.3328922058      -13.1685039419       -9.5320456125  MEMB      45              0.0000000000
      5958        45  POPC      H8S            12.4278907687      -12.2435983729       -8.2898842703  MEMB      45              0.0000000000
      5959        45  POPC      C29            14.5801349596      -12.4213944689       -8.0673809333  MEMB      45              0.0000000000
      5960        45  POPC      H91            15.0313685033      -13.3886716379       -8.2637221765  MEMB      45              0.0000000000
      5961        45  POPC      C210           15.0753517308      -11.7659798748       -7.0149808505  MEMB      45              0.0000000000
      5962        45  POPC      H101           16.0495694136      -12.0403057653       -6.6014643977  MEMB      45              0.0000000000
      5963        45  POPC      C211           14.4952431070      -10.6520238783       -6.2978959854  MEMB      45              0.0000000000
      5964        45  POPC      H11R           13.5776327126      -10.3809670368       -6.8608376175  MEMB      45              0.0000000000
      5965        45  POPC      H11S           15.2738872077       -9.8924006433       -6.3819625921  MEMB      45              0.0000000000
      5966        45  POPC      C212           14.0921140049      -10.8427636974       -4.8125540328  MEMB      45              0.0000000000
      5967        45  POPC      H12R           13.1489844591      -11.3424077192       -4.7492187799  MEMB      45              0.0000000000
      5968        45  POPC      H12S           13.6111631195       -9.9420445325       -4.4379829932  MEMB      45              0.0000000000
      5969        45  POPC      C213           15.0210112415      -11.4276082213       -3.7251966187  MEMB      45              0.0000000000
      5970        45  POPC      H13R           15.8552768147      -10.7133318763       -3.5998898174  MEMB      45              0.0000000000
      5971        45  POPC      H13S           15.4549747412      -12.4327754379       -3.9393737301  MEMB      45              0.0000000000
      5972        45  POPC      C214           14.1510469834      -11.5299737031       -2.4516751146  MEMB      45              0.0000000000
      5973        45  POPC      H14R           13.3347264196      -12.2551318221       -2.6230257808  MEMB      45              0.0000000000
      5974        45  POPC      H14S           13.6422782602      -10.5505843243       -2.3152196624  MEMB      45              0.0000000000
      5975        45  POPC      C215           14.8225138675      -11.9487108878       -1.1456638242  MEMB      45              0.0000000000
      5976        45  POPC      H15R           14.0708463147      -11.8397363429       -0.3369706360  MEMB      45              0.0000000000
      5977        45  POPC      H15S           15.6829798131      -11.3075163523       -0.8837349857  MEMB      45              0.0000000000
      5978        45  POPC      C216           15.1445016158      -13.4320705576       -1.0459932221  MEMB      45              0.0000000000
      5979        45  POPC      H16R           16.1261830099      -13.6309754016       -1.5264609778  MEMB      45              0.0000000000
      5980        45  POPC      H16S           14.3364776615      -13.9801422923       -1.5812313384  MEMB      45              0.0000000000
      5981        45  POPC      C217           15.0816628612      -13.8793042422        0.4111658181  MEMB      45              0.0000000000
      5982        45  POPC      H17R           15.2527676080      -14.9142518426        0.6279468838  MEMB      45              0.0000000000
      5983        45  POPC      H17S           14.0618228212      -13.7205514844        0.8076858994  MEMB      45              0.0000000000
      5984        45  POPC      C218           16.0897116189      -13.2535605157        1.3006796704  MEMB      45              0.0000000000
      5985        45  POPC      H18R           17.1233143042      -13.2435350056        0.8877958730  MEMB      45              0.0000000000
      5986        45  POPC      H18S           16.1491502221      -13.8123180640        2.2616688018  MEMB      45              0.0000000000
      5987        45  POPC      H18T           15.6961160778      -12.2365782819        1.4886353930  MEMB      45              0.0000000000
      5988        45  POPC      C33            16.0021245419      -10.8616982610      -13.4631388811  MEMB      45              0.0000000000
      5989        45  POPC      H3X            17.0716918721      -11.0149292563      -13.1494272632  MEMB      45              0.0000000000
      5990        45  POPC      H3Y            15.3413809926      -10.8661354550      -12.5738908263  MEMB      45              0.0000000000
      5991        45  POPC      C34            15.9890393206       -9.7391896093      -14.3975405481  MEMB      45              0.0000000000
      5992        45  POPC      H4X            14.9768433292       -9.6484071049      -14.8295319986  MEMB      45              0.0000000000
      5993        45  POPC      H4Y            16.7050380094       -9.9807556249      -15.2232288260  MEMB      45              0.0000000000
      5994        45  POPC      C35            16.4458203114       -8.5349944886      -13.6576606101  MEMB      45              0.0000000000
      5995        45  POPC      H5X            16.7049097025       -7.7721934117      -14.4178108358  MEMB      45              0.0000000000
      5996        45  POPC      H5Y            17.3772655527       -8.8272886278      -13.1116253180  MEMB      45              0.0000000000
      5997        45  POPC      C36            15.4262290269       -8.0926769049      -12.6157472901  MEMB      45              0.0000000000
      5998        45  POPC      H6X            15.2273322669       -8.9405719630      -11.9289145721  MEMB      45              0.0000000000
      5999        45  POPC      H6Y            14.4607824243       -7.7911736756      -13.0685911509  MEMB      45              0.0000000000
      6000        45  POPC      C37            16.0549944122       -6.9534541925      -11.8500492361  MEMB      45              0.0000000000
      6001        45  POPC      H7X            15.9174491521       -6.0597802948      -12.4940057434  MEMB      45              0.0000000000
      6002        45  POPC      H7Y            17.1460679204       -7.1659191573      -11.7739493713  MEMB      45              0.0000000000
      6003        45  POPC      C38            15.5565257737       -6.6972057872      -10.4336278956  MEMB      45              0.0000000000
      6004        45  POPC      H8X            14.4665776418       -6.4751941409      -10.4084000668  MEMB      45              0.0000000000
      6005        45  POPC      H8Y            16.1132052843       -5.7857392483      -10.1109400466  MEMB      45              0.0000000000
      6006        45  POPC      C39            15.9155727120       -7.7630929615       -9.4030966252  MEMB      45              0.0000000000
      6007        45  POPC      H9X            16.9289940407       -8.1774442550       -9.6032588460  MEMB      45              0.0000000000
      6008        45  POPC      H9Y            15.1904796066       -8.6012699699       -9.4753961701  MEMB      45              0.0000000000
      6009        45  POPC      C310           15.9136765485       -7.1541084592       -7.9949488112  MEMB      45              0.0000000000
      6010        45  POPC      H10X           16.5867049317       -6.2655358241       -7.9639889589  MEMB      45              0.0000000000
      6011        45  POPC      H10Y           16.3359961642       -7.9124033549       -7.3019800218  MEMB      45              0.0000000000
      6012        45  POPC      C311           14.5095131292       -6.7019126453       -7.5676791913  MEMB      45              0.0000000000
      6013        45  POPC      H11X           13.7668043700       -7.4685587872       -7.8871308699  MEMB      45              0.0000000000
      6014        45  POPC      H11Y           14.2623612804       -5.7485743305       -8.0857305805  MEMB      45              0.0000000000
      6015        45  POPC      C312           14.3799440717       -6.4564374639       -6.0664574158  MEMB      45              0.0000000000
      6016        45  POPC      H12X           13.3963005298       -5.9913952190       -5.8270487171  MEMB      45              0.0000000000
      6017        45  POPC      H12Y           15.1744653324       -5.7628898876       -5.7252271781  MEMB      45              0.0000000000
      6018        45  POPC      C313           14.4834522317       -7.7320970586       -5.2588974766  MEMB      45              0.0000000000
      6019        45  POPC      H13X           15.4565853747       -8.2365389895       -5.4166515575  MEMB      45              0.0000000000
      6020        45  POPC      H13Y           13.6719081476       -8.4011356879       -5.6222308649  MEMB      45              0.0000000000
      6021        45  POPC      C314           14.3741474121       -7.4409732834       -3.7741949380  MEMB      45              0.0000000000
      6022        45  POPC      H14X           14.0174834744       -8.3259919426       -3.1919934285  MEMB      45              0.0000000000
      6023        45  POPC      H14Y           13.6309577275       -6.6227999559       -3.6492896834  MEMB      45              0.0000000000
      6024        45  POPC      C315           15.6833714090       -7.0164974423       -3.2033017500  MEMB      45              0.0000000000
      6025        45  POPC      H15X           16.0420861798       -6.1104238445       -3.7435560875  MEMB      45              0.0000000000
      6026        45  POPC      H15Y           16.4250177335       -7.8303587240       -3.3568120191  MEMB      45              0.0000000000
      6027        45  POPC      C316           15.5407650467       -6.7499956647       -1.7277616922  MEMB      45              0.0000000000
      6028        45  POPC      H16X           16.5787681248       -6.5993953076       -1.3675075851  MEMB      45              0.0000000000
      6029        45  POPC      H16Y           15.0934324355       -7.5845426370       -1.1557594595  MEMB      45              0.0000000000
      6030        45  POPC      H16Z           14.9072365257       -5.8500231496       -1.5505531426  MEMB      45              0.0000000000
      6031        46  POPC      N             -15.4823258617       -1.3321001877      -20.7261279782  MEMB      46              0.0000000000
      6032        46  POPC      C12           -15.0591165241       -1.4488250285      -19.2732979146  MEMB      46              0.0000000000
      6033        46  POPC      H12A          -15.8287347378       -0.9944788676      -18.6381606943  MEMB      46              0.0000000000
      6034        46  POPC      H12B          -14.1499991261       -0.8919519777      -19.1218760929  MEMB      46              0.0000000000
      6035        46  POPC      C13           -14.7083626824       -2.2805781401      -21.5987423400  MEMB      46              0.0000000000
      6036        46  POPC      H13A          -15.0592532222       -2.2908773110      -22.6262917052  MEMB      46              0.0000000000
      6037        46  POPC      H13B          -13.6545363788       -2.0633236932      -21.5841578953  MEMB      46              0.0000000000
      6038        46  POPC      H13C          -14.8744884908       -3.2872670995      -21.1982443404  MEMB      46              0.0000000000
      6039        46  POPC      C14           -16.9260198110       -1.7001124358      -20.8822936193  MEMB      46              0.0000000000
      6040        46  POPC      H14A          -17.5713315161       -1.0516616742      -20.3063061254  MEMB      46              0.0000000000
      6041        46  POPC      H14B          -17.2273303116       -1.6598286349      -21.9167078263  MEMB      46              0.0000000000
      6042        46  POPC      H14C          -17.1238926730       -2.7130259967      -20.5232867366  MEMB      46              0.0000000000
      6043        46  POPC      C15           -15.3223298993        0.0926870253      -21.1305074669  MEMB      46              0.0000000000
      6044        46  POPC      H15A          -15.6360750185        0.7341553272      -20.3142796722  MEMB      46              0.0000000000
      6045        46  POPC      H15B          -15.9802941459        0.3269778867      -21.9626540174  MEMB      46              0.0000000000
      6046        46  POPC      H15C          -14.2989470907        0.2980378524      -21.3835483522  MEMB      46              0.0000000000
      6047        46  POPC      C11           -14.8170164543       -2.8594937196      -18.7176755009  MEMB      46              0.0000000000
      6048        46  POPC      H11A          -14.3094758994       -2.7738478818      -17.7253212241  MEMB      46              0.0000000000
      6049        46  POPC      H11B          -14.1342868620       -3.4431471207      -19.3622157387  MEMB      46              0.0000000000
      6050        46  POPC      P             -16.9102534899       -3.4897241438      -17.3128014214  MEMB      46              0.0000000000
      6051        46  POPC      O13           -16.2907385727       -4.3235387579      -16.2608279527  MEMB      46              0.0000000000
      6052        46  POPC      O14           -18.3181267006       -3.7716215980      -17.6740127670  MEMB      46              0.0000000000
      6053        46  POPC      O12           -16.0428897875       -3.5593331998      -18.6384053152  MEMB      46              0.0000000000
      6054        46  POPC      O11           -16.7575512315       -1.9223274704      -16.9199158734  MEMB      46              0.0000000000
      6055        46  POPC      C1            -17.6699375847       -1.4601617835      -15.9113607438  MEMB      46              0.0000000000
      6056        46  POPC      HA            -17.6543592934       -2.1087219046      -14.9965303817  MEMB      46              0.0000000000
      6057        46  POPC      HB            -18.7054476920       -1.4656477806      -16.3155851828  MEMB      46              0.0000000000
      6058        46  POPC      C2            -17.3395001927       -0.0494851647      -15.3708992294  MEMB      46              0.0000000000
      6059        46  POPC      HS            -16.9156683121        0.6102113006      -16.1654454677  MEMB      46              0.0000000000
      6060        46  POPC      O21           -16.3676784554       -0.3118823386      -14.3113026009  MEMB      46              0.0000000000
      6061        46  POPC      C21           -16.0305537638        0.7287130183      -13.5788729377  MEMB      46              0.0000000000
      6062        46  POPC      O22           -16.4027474139        1.8320384710      -13.7850844570  MEMB      46              0.0000000000
      6063        46  POPC      C22           -15.1627577442        0.4735461722      -12.3863108589  MEMB      46              0.0000000000
      6064        46  POPC      H2R           -15.0440277596        1.4518477385      -11.8536697222  MEMB      46              0.0000000000
      6065        46  POPC      H2S           -14.1748799901        0.1279939324      -12.7318194044  MEMB      46              0.0000000000
      6066        46  POPC      C3            -18.7086953467        0.6210597185      -14.9277742975  MEMB      46              0.0000000000
      6067        46  POPC      HX            -19.2897610241        0.7268718715      -15.8757750358  MEMB      46              0.0000000000
      6068        46  POPC      HY            -18.6313130112        1.6599929209      -14.5573970770  MEMB      46              0.0000000000
      6069        46  POPC      O31           -19.5009275179       -0.2078818704      -14.0684535757  MEMB      46              0.0000000000
      6070        46  POPC      C31           -19.6275740752        0.1801747403      -12.8007432367  MEMB      46              0.0000000000
      6071        46  POPC      O32           -19.0668306824        1.1028180504      -12.2635786362  MEMB      46              0.0000000000
      6072        46  POPC      C32           -20.7071202621       -0.6329895152      -12.1405019105  MEMB      46              0.0000000000
      6073        46  POPC      H2X           -21.0051948927       -1.3803680706      -12.8977385716  MEMB      46              0.0000000000
      6074        46  POPC      H2Y           -21.5662918998        0.0184198750      -11.9368052962  MEMB      46              0.0000000000
      6075        46  POPC      C23           -15.9475633696       -0.5205531263      -11.5465248606  MEMB      46              0.0000000000
      6076        46  POPC      H3R           -16.1881550521       -1.3885665093      -12.2032122612  MEMB      46              0.0000000000
      6077        46  POPC      H3S           -16.9206841580       -0.0701497185      -11.2378187501  MEMB      46              0.0000000000
      6078        46  POPC      C24           -15.1816707810       -1.0659886402      -10.3494414365  MEMB      46              0.0000000000
      6079        46  POPC      H4R           -14.1856984768       -1.4177733828      -10.6885206931  MEMB      46              0.0000000000
      6080        46  POPC      H4S           -15.7614986783       -1.9396666741       -9.9776038554  MEMB      46              0.0000000000
      6081        46  POPC      C25           -15.0285760229       -0.0788266461       -9.1962565319  MEMB      46              0.0000000000
      6082        46  POPC      H5R           -14.5906801707        0.8732965168       -9.5679554230  MEMB      46              0.0000000000
      6083        46  POPC      H5S           -14.3714416633       -0.5179602347       -8.4129434280  MEMB      46              0.0000000000
      6084        46  POPC      C26           -16.3585423026        0.2428834071       -8.5529951827  MEMB      46              0.0000000000
      6085        46  POPC      H6R           -16.8172378148       -0.6579842956       -8.0859078726  MEMB      46              0.0000000000
      6086        46  POPC      H6S           -17.0530629964        0.5899766866       -9.3554408097  MEMB      46              0.0000000000
      6087        46  POPC      C27           -16.2723803010        1.3582862330       -7.5113696212  MEMB      46              0.0000000000
      6088        46  POPC      H7R           -15.5508602849        2.1374447150       -7.8458176827  MEMB      46              0.0000000000
      6089        46  POPC      H7S           -15.9411225760        0.9716952534       -6.5250355160  MEMB      46              0.0000000000
      6090        46  POPC      C28           -17.6473157542        1.9836126312       -7.3829359982  MEMB      46              0.0000000000
      6091        46  POPC      H8R           -17.7578984221        2.6282357291       -8.2576860957  MEMB      46              0.0000000000
      6092        46  POPC      H8S           -17.7766770219        2.5372728565       -6.4379129339  MEMB      46              0.0000000000
      6093        46  POPC      C29           -18.7310929881        1.0000947797       -7.5279531146  MEMB      46              0.0000000000
      6094        46  POPC      H91           -19.5050262738        1.2819748382       -8.2564734733  MEMB      46              0.0000000000
      6095        46  POPC      C210          -19.0926322166        0.2547464037       -6.5135636036  MEMB      46              0.0000000000
      6096        46  POPC      H101          -20.0440911611       -0.2382735514       -6.5816799731  MEMB      46              0.0000000000
      6097        46  POPC      C211          -18.5321515031        0.2872257701       -5.1275839937  MEMB      46              0.0000000000
      6098        46  POPC      H11R          -19.2572817770        0.6238777178       -4.3484611061  MEMB      46              0.0000000000
      6099        46  POPC      H11S          -17.6304785447        0.9092438469       -4.9645976666  MEMB      46              0.0000000000
      6100        46  POPC      C212          -18.4280145125       -1.1595615863       -4.9159097513  MEMB      46              0.0000000000
      6101        46  POPC      H12R          -17.8771495483       -1.1259529201       -3.9670318956  MEMB      46              0.0000000000
      6102        46  POPC      H12S          -17.7621102058       -1.6401715866       -5.6651886319  MEMB      46              0.0000000000
      6103        46  POPC      C213          -19.8177707853       -1.8724877023       -4.8551504396  MEMB      46              0.0000000000
      6104        46  POPC      H13R          -19.5932361611       -2.9559906168       -4.7701868889  MEMB      46              0.0000000000
      6105        46  POPC      H13S          -20.3682862518       -1.8895776265       -5.7952578578  MEMB      46              0.0000000000
      6106        46  POPC      C214          -20.8333585644       -1.3878033682       -3.7712155135  MEMB      46              0.0000000000
      6107        46  POPC      H14R          -21.7565836115       -1.9738146593       -3.8946847156  MEMB      46              0.0000000000
      6108        46  POPC      H14S          -21.1326769226       -0.3874228878       -3.6861487352  MEMB      46              0.0000000000
      6109        46  POPC      C215          -20.3160147105       -1.3924777495       -2.3805319963  MEMB      46              0.0000000000
      6110        46  POPC      H15R          -19.3077974829       -1.0074244592       -2.1809840134  MEMB      46              0.0000000000
      6111        46  POPC      H15S          -20.2877667039       -2.3335647754       -2.8562962683  MEMB      46              0.0000000000
      6112        46  POPC      C216          -21.2199893158       -1.6317668810       -1.2202752814  MEMB      46              0.0000000000
      6113        46  POPC      H16R          -22.1071839725       -2.2815360147       -1.3993450340  MEMB      46              0.0000000000
      6114        46  POPC      H16S          -21.4870011473       -0.6027038265       -0.9677766269  MEMB      46              0.0000000000
      6115        46  POPC      C217          -20.6038306849       -1.9664133086        0.0699113853  MEMB      46              0.0000000000
      6116        46  POPC      H17R          -20.8378381985       -3.0788198415        0.2253456107  MEMB      46              0.0000000000
      6117        46  POPC      H17S          -20.4010425582       -2.8593238268        0.6523046071  MEMB      46              0.0000000000
      6118        46  POPC      C218          -19.6816954742       -0.8549149928        0.5928261249  MEMB      46              0.0000000000
      6119        46  POPC      H18R          -19.8279967968       -0.0232153138       -0.0557459730  MEMB      46              0.0000000000
      6120        46  POPC      H18S          -18.6513892708       -1.0785907957        0.8479114272  MEMB      46              0.0000000000
      6121        46  POPC      H18T          -19.7381415543       -0.3582906197        1.5536691576  MEMB      46              0.0000000000
      6122        46  POPC      C33           -20.4733053113       -1.1270910200      -10.7025177170  MEMB      46              0.0000000000
      6123        46  POPC      H3X           -21.4035433564       -1.6342345069      -10.3397862798  MEMB      46              0.0000000000
      6124        46  POPC      H3Y           -20.3074775192       -0.3019111531       -9.9924544229  MEMB      46              0.0000000000
      6125        46  POPC      C34           -19.3934497719       -2.1628921268      -10.6475206972  MEMB      46              0.0000000000
      6126        46  POPC      H4X           -18.6394919705       -2.1031204957      -11.4618288303  MEMB      46              0.0000000000
      6127        46  POPC      H4Y           -19.8096204573       -3.1662678970      -10.7017350863  MEMB      46              0.0000000000
      6128        46  POPC      C35           -19.0218416696       -2.5437427337       -9.2701974253  MEMB      46              0.0000000000
      6129        46  POPC      H5X           -19.9176618422       -2.8905102362       -8.6896818136  MEMB      46              0.0000000000
      6130        46  POPC      H5Y           -18.6184713865       -1.6142810775       -8.8410828932  MEMB      46              0.0000000000
      6131        46  POPC      C36           -18.0439147736       -3.6898600416       -9.3739251092  MEMB      46              0.0000000000
      6132        46  POPC      H6X           -17.3052939416       -3.4337771279      -10.1715248033  MEMB      46              0.0000000000
      6133        46  POPC      H6Y           -18.4843986379       -4.6706049991       -9.6737866486  MEMB      46              0.0000000000
      6134        46  POPC      C37           -17.3999534874       -3.7658127824       -8.0262475580  MEMB      46              0.0000000000
      6135        46  POPC      H7X           -18.1156939735       -4.1633911668       -7.2738352443  MEMB      46              0.0000000000
      6136        46  POPC      H7Y           -17.1455144560       -2.7196425643       -7.7304553417  MEMB      46              0.0000000000
      6137        46  POPC      C38           -16.1137489360       -4.5280219508       -8.1539051563  MEMB      46              0.0000000000
      6138        46  POPC      H8X           -15.7326264997       -4.4184918214       -9.1963799512  MEMB      46              0.0000000000
      6139        46  POPC      H8Y           -16.2921745380       -5.6027922507       -7.9764997054  MEMB      46              0.0000000000
      6140        46  POPC      C39           -15.0350111625       -3.9142086954       -7.2980550405  MEMB      46              0.0000000000
      6141        46  POPC      H9X           -14.7754495612       -2.8809495790       -7.6021808784  MEMB      46              0.0000000000
      6142        46  POPC      H9Y           -14.1172045114       -4.4822769751       -7.4972369316  MEMB      46              0.0000000000
      6143        46  POPC      C310          -15.3342783078       -3.8603401733       -5.8201024651  MEMB      46              0.0000000000
      6144        46  POPC      H10X          -15.8138065572       -4.8192594359       -5.5111431569  MEMB      46              0.0000000000
      6145        46  POPC      H10Y          -16.0822654336       -3.0845679751       -5.5498318571  MEMB      46              0.0000000000
      6146        46  POPC      C311          -13.9545351217       -3.5223791125       -5.2009902413  MEMB      46              0.0000000000
      6147        46  POPC      H11X          -13.5986553212       -2.5298125050       -5.4954872577  MEMB      46              0.0000000000
      6148        46  POPC      H11Y          -13.2189949478       -4.2852050473       -5.4934545802  MEMB      46              0.0000000000
      6149        46  POPC      C312          -13.9331697180       -3.4740382003       -3.7379594293  MEMB      46              0.0000000000
      6150        46  POPC      H12X          -13.2596411627       -4.0777259936       -3.0935452523  MEMB      46              0.0000000000
      6151        46  POPC      H12Y          -14.7435789348       -4.2431582640       -3.7918496899  MEMB      46              0.0000000000
      6152        46  POPC      C313          -14.3259971040       -2.0752391424       -3.1369062381  MEMB      46              0.0000000000
      6153        46  POPC      H13X          -15.1741599094       -1.7617076071       -3.7340240717  MEMB      46              0.0000000000
      6154        46  POPC      H13Y          -13.6469346365       -1.3146173524       -3.2685655447  MEMB      46              0.0000000000
      6155        46  POPC      C314          -14.3143722386       -1.9444714921       -1.6151616482  MEMB      46              0.0000000000
      6156        46  POPC      H14X          -13.6729363979       -2.8227435973       -1.2956930082  MEMB      46              0.0000000000
      6157        46  POPC      H14Y          -15.3588959980       -1.9245542605       -1.3760533696  MEMB      46              0.0000000000
      6158        46  POPC      C315          -14.6986504016       -1.0380155746       -0.4975690343  MEMB      46              0.0000000000
      6159        46  POPC      H15X          -15.2524917409       -1.4650712247        0.4248893508  MEMB      46              0.0000000000
      6160        46  POPC      H15Y          -15.1987792771       -0.0914941249       -0.7689363232  MEMB      46              0.0000000000
      6161        46  POPC      C316          -13.2788183063       -1.1365616004       -0.2784035942  MEMB      46              0.0000000000
      6162        46  POPC      H16X          -13.1176884239       -2.0140029209        0.4355476655  MEMB      46              0.0000000000
      6163        46  POPC      H16Y          -13.1145786564       -0.1255492744       -0.0140876074  MEMB      46              0.0000000000
      6164        46  POPC      H16Z          -12.4935817437       -1.2170628186       -1.0572668247  MEMB      46              0.0000000000
      6165        47  POPC      N              -3.8153502592       17.9703751278      -18.9641997041  MEMB      47              0.0000000000
      6166        47  POPC      C12            -5.2707139692       18.4225502589      -19.0202238925  MEMB      47              0.0000000000
      6167        47  POPC      H12A           -5.5288895812       18.7210419856      -20.0296278402  MEMB      47              0.0000000000
      6168        47  POPC      H12B           -5.3757056696       19.3042280099      -18.3995275107  MEMB      47              0.0000000000
      6169        47  POPC      C13            -3.6488194292       16.7131122776      -19.7750979383  MEMB      47              0.0000000000
      6170        47  POPC      H13A           -4.0133728206       16.8865202273      -20.7858535959  MEMB      47              0.0000000000
      6171        47  POPC      H13B           -2.6342373568       16.3562814014      -19.8102882309  MEMB      47              0.0000000000
      6172        47  POPC      H13C           -4.3259886609       15.9478142004      -19.3826736086  MEMB      47              0.0000000000
      6173        47  POPC      C14            -2.9887053022       19.0609605329      -19.5533148445  MEMB      47              0.0000000000
      6174        47  POPC      H14A           -3.1276729851       19.9817156430      -18.9998878644  MEMB      47              0.0000000000
      6175        47  POPC      H14B           -1.9413052725       18.8129775627      -19.5127177915  MEMB      47              0.0000000000
      6176        47  POPC      H14C           -3.2751662467       19.2180724331      -20.5889376622  MEMB      47              0.0000000000
      6177        47  POPC      C15            -3.3905653975       17.7429177091      -17.5407361739  MEMB      47              0.0000000000
      6178        47  POPC      H15A           -3.3744301103       16.6933064821      -17.2687513266  MEMB      47              0.0000000000
      6179        47  POPC      H15B           -4.0412365111       18.2588215757      -16.8362360777  MEMB      47              0.0000000000
      6180        47  POPC      H15C           -2.4054020639       18.1470851766      -17.3667845930  MEMB      47              0.0000000000
      6181        47  POPC      C11            -6.3597143567       17.4220100987      -18.5880236788  MEMB      47              0.0000000000
      6182        47  POPC      H11A           -7.3192451897       17.9869556532      -18.5166408574  MEMB      47              0.0000000000
      6183        47  POPC      H11B           -6.0915877216       17.0505466176      -17.5732488310  MEMB      47              0.0000000000
      6184        47  POPC      P              -7.6455308165       15.2667661227      -19.1946133729  MEMB      47              0.0000000000
      6185        47  POPC      O13            -7.2982619579       13.9575187326      -19.8085546836  MEMB      47              0.0000000000
      6186        47  POPC      O14            -8.9920510593       15.8420993116      -19.4310139785  MEMB      47              0.0000000000
      6187        47  POPC      O12            -6.4962837205       16.3407565452      -19.5153634022  MEMB      47              0.0000000000
      6188        47  POPC      O11            -7.4829028374       15.1194626955      -17.6317465974  MEMB      47              0.0000000000
      6189        47  POPC      C1             -6.7936891435       14.0257726360      -17.0392674294  MEMB      47              0.0000000000
      6190        47  POPC      HA             -5.8086104377       13.8731925007      -17.5324986965  MEMB      47              0.0000000000
      6191        47  POPC      HB             -7.3850245627       13.0900370704      -17.1629041118  MEMB      47              0.0000000000
      6192        47  POPC      C2             -6.5269677068       14.2056828157      -15.5108344006  MEMB      47              0.0000000000
      6193        47  POPC      HS             -7.2739809846       13.5652749241      -14.9810613071  MEMB      47              0.0000000000
      6194        47  POPC      O21            -6.5591675126       15.5792572246      -15.0960064728  MEMB      47              0.0000000000
      6195        47  POPC      C21            -7.3392279650       15.8003229163      -14.0625069426  MEMB      47              0.0000000000
      6196        47  POPC      O22            -8.2185980163       15.0718113651      -13.6412602461  MEMB      47              0.0000000000
      6197        47  POPC      C22            -6.9798457804       17.1371338470      -13.4731522679  MEMB      47              0.0000000000
      6198        47  POPC      H2R            -7.3268122114       17.8257289621      -14.2429988544  MEMB      47              0.0000000000
      6199        47  POPC      H2S            -5.9002396363       17.3460139109      -13.4271463323  MEMB      47              0.0000000000
      6200        47  POPC      C3             -5.1182224447       13.6444622729      -15.1908153010  MEMB      47              0.0000000000
      6201        47  POPC      HX             -4.3568433773       14.2086249424      -15.7762356824  MEMB      47              0.0000000000
      6202        47  POPC      HY             -5.1529415714       12.6229677196      -15.6057952262  MEMB      47              0.0000000000
      6203        47  POPC      O31            -4.8037624249       13.5671796246      -13.7810426187  MEMB      47              0.0000000000
      6204        47  POPC      C31            -4.3206162134       14.6840485792      -13.2431143175  MEMB      47              0.0000000000
      6205        47  POPC      O32            -4.1014904678       15.7197129003      -13.8426322994  MEMB      47              0.0000000000
      6206        47  POPC      C32            -4.0583476065       14.5331171423      -11.7581333780  MEMB      47              0.0000000000
      6207        47  POPC      H2X            -3.5645101023       15.4635081512      -11.4222011286  MEMB      47              0.0000000000
      6208        47  POPC      H2Y            -3.3825528715       13.6920334309      -11.5611432931  MEMB      47              0.0000000000
      6209        47  POPC      C23            -7.6310443144       17.3526514810      -12.1041877605  MEMB      47              0.0000000000
      6210        47  POPC      H3R            -7.2785670043       16.6273036853      -11.3522820332  MEMB      47              0.0000000000
      6211        47  POPC      H3S            -8.7224698811       17.1254162784      -12.0926366654  MEMB      47              0.0000000000
      6212        47  POPC      C24            -7.4149917810       18.8007487192      -11.6796796817  MEMB      47              0.0000000000
      6213        47  POPC      H4R            -7.5558803181       19.5877922242      -12.4528349014  MEMB      47              0.0000000000
      6214        47  POPC      H4S            -6.3970141091       18.9506080478      -11.2837037364  MEMB      47              0.0000000000
      6215        47  POPC      C25            -8.4490301744       19.1278701095      -10.6781858915  MEMB      47              0.0000000000
      6216        47  POPC      H5R            -9.2042606286       18.3389179763      -10.5338833318  MEMB      47              0.0000000000
      6217        47  POPC      H5S            -8.9746038363       20.1041558939      -10.8786471224  MEMB      47              0.0000000000
      6218        47  POPC      C26            -7.7410048636       19.0261493154       -9.4069069588  MEMB      47              0.0000000000
      6219        47  POPC      H6R            -7.1756895757       19.9409500086       -9.2480319953  MEMB      47              0.0000000000
      6220        47  POPC      H6S            -7.2135550518       18.0978809877       -9.1221755562  MEMB      47              0.0000000000
      6221        47  POPC      C27            -8.7457852105       19.1105800746       -8.4359685916  MEMB      47              0.0000000000
      6222        47  POPC      H7R            -9.5061375603       18.3055061221       -8.4256571318  MEMB      47              0.0000000000
      6223        47  POPC      H7S            -9.2683412823       19.9897301911       -8.9105103660  MEMB      47              0.0000000000
      6224        47  POPC      C28            -7.9456928073       19.3660319441       -7.1596229356  MEMB      47              0.0000000000
      6225        47  POPC      H8R            -8.7556411649       19.7061366793       -6.6520669200  MEMB      47              0.0000000000
      6226        47  POPC      H8S            -7.4469811822       20.3675322089       -7.1788208995  MEMB      47              0.0000000000
      6227        47  POPC      C29            -7.8997024276       18.4869406514       -5.9536315052  MEMB      47              0.0000000000
      6228        47  POPC      H91            -8.8022582865       17.8502920196       -5.8560079953  MEMB      47              0.0000000000
      6229        47  POPC      C210           -7.1925222021       18.7406260068       -4.8350013124  MEMB      47              0.0000000000
      6230        47  POPC      H101           -7.4513452733       18.0911851909       -3.9895396974  MEMB      47              0.0000000000
      6231        47  POPC      C211           -6.2769506130       19.9347076573       -4.5190098481  MEMB      47              0.0000000000
      6232        47  POPC      H11R           -6.4342022306       20.8347195758       -5.1634778920  MEMB      47              0.0000000000
      6233        47  POPC      H11S           -5.2248286515       19.6099194466       -4.5982189763  MEMB      47              0.0000000000
      6234        47  POPC      C212           -6.2893612987       20.4954965582       -3.1064354743  MEMB      47              0.0000000000
      6235        47  POPC      H12R           -7.0810911874       21.1889077328       -2.9166106487  MEMB      47              0.0000000000
      6236        47  POPC      H12S           -5.6134578647       21.3407007351       -2.8935511258  MEMB      47              0.0000000000
      6237        47  POPC      C213           -6.5174549808       19.4223787392       -2.0534884137  MEMB      47              0.0000000000
      6238        47  POPC      H13R           -5.4908107177       18.9967564012       -1.9232806506  MEMB      47              0.0000000000
      6239        47  POPC      H13S           -7.2463593912       18.6150881511       -2.1928747232  MEMB      47              0.0000000000
      6240        47  POPC      C214           -6.9656451022       20.2713911643       -0.9096727654  MEMB      47              0.0000000000
      6241        47  POPC      H14R           -6.3130714263       21.1355590203       -0.9712962203  MEMB      47              0.0000000000
      6242        47  POPC      H14S           -6.6842580101       19.3118985504       -0.3232220460  MEMB      47              0.0000000000
      6243        47  POPC      C215           -7.8507499458       20.5807694431        0.3093001524  MEMB      47              0.0000000000
      6244        47  POPC      H15R           -8.1243616461       21.6326916475        0.0672621888  MEMB      47              0.0000000000
      6245        47  POPC      H15S           -7.5254001634       20.8310303169        1.3416745687  MEMB      47              0.0000000000
      6246        47  POPC      C216           -8.7528677485       19.4774728094        0.3107723803  MEMB      47              0.0000000000
      6247        47  POPC      H16R           -8.8260671837       19.1362823773       -0.7602954879  MEMB      47              0.0000000000
      6248        47  POPC      H16S           -9.5780894761       20.0393006076        0.7308968437  MEMB      47              0.0000000000
      6249        47  POPC      C217           -8.6412443018       18.2574154068        1.1058664723  MEMB      47              0.0000000000
      6250        47  POPC      H17R           -8.4495288494       18.6192107218        2.1374390144  MEMB      47              0.0000000000
      6251        47  POPC      H17S           -7.8078941508       17.6672897767        0.6642845157  MEMB      47              0.0000000000
      6252        47  POPC      C218           -9.9930035551       17.5576365290        0.9480109438  MEMB      47              0.0000000000
      6253        47  POPC      H18R          -10.2826890097       17.4342635664       -0.1239766468  MEMB      47              0.0000000000
      6254        47  POPC      H18S          -10.8004125997       18.1697909142        1.4164281834  MEMB      47              0.0000000000
      6255        47  POPC      H18T           -9.9557685436       16.5642420274        1.4187403024  MEMB      47              0.0000000000
      6256        47  POPC      C33            -5.3159258920       14.3027644350      -10.9324720580  MEMB      47              0.0000000000
      6257        47  POPC      H3X            -5.6301971051       13.2988251350      -11.0999457261  MEMB      47              0.0000000000
      6258        47  POPC      H3Y            -6.1898293028       14.8724556022      -11.2873821793  MEMB      47              0.0000000000
      6259        47  POPC      C34            -5.0603790327       14.5243949944       -9.4476393995  MEMB      47              0.0000000000
      6260        47  POPC      H4X            -4.5517486988       15.5129315524       -9.3902312236  MEMB      47              0.0000000000
      6261        47  POPC      H4Y            -4.3735804287       13.7618982441       -9.0122787260  MEMB      47              0.0000000000
      6262        47  POPC      C35            -6.3745086552       14.5880082496       -8.6693849019  MEMB      47              0.0000000000
      6263        47  POPC      H5X            -6.8058319002       13.5704484232       -8.5401321285  MEMB      47              0.0000000000
      6264        47  POPC      H5Y            -7.0993246393       15.1783738259       -9.2777251451  MEMB      47              0.0000000000
      6265        47  POPC      C36            -6.2099056222       15.2696256496       -7.3040029326  MEMB      47              0.0000000000
      6266        47  POPC      H6X            -7.2216281979       15.4973744196       -6.9009395901  MEMB      47              0.0000000000
      6267        47  POPC      H6Y            -5.6811430019       16.2383367417       -7.4478989648  MEMB      47              0.0000000000
      6268        47  POPC      C37            -5.4183551960       14.4071318103       -6.3073128041  MEMB      47              0.0000000000
      6269        47  POPC      H7X            -4.3730970172       14.3082357434       -6.6692367255  MEMB      47              0.0000000000
      6270        47  POPC      H7Y            -5.8628455326       13.3834959338       -6.3129128267  MEMB      47              0.0000000000
      6271        47  POPC      C38            -5.4484900287       14.9236516155       -4.8541213664  MEMB      47              0.0000000000
      6272        47  POPC      H8X            -5.1793565337       14.0736058506       -4.1893569188  MEMB      47              0.0000000000
      6273        47  POPC      H8Y            -6.4840923641       15.2380655646       -4.6028158263  MEMB      47              0.0000000000
      6274        47  POPC      C39            -4.5003894237       16.0905412665       -4.5223143200  MEMB      47              0.0000000000
      6275        47  POPC      H9X            -4.6505128284       16.9010383326       -5.2734418062  MEMB      47              0.0000000000
      6276        47  POPC      H9Y            -3.4497300096       15.7425901449       -4.6371420515  MEMB      47              0.0000000000
      6277        47  POPC      C310           -4.7541890409       16.7265376252       -3.1252719085  MEMB      47              0.0000000000
      6278        47  POPC      H10X           -5.7313054753       17.2307452777       -3.1589008598  MEMB      47              0.0000000000
      6279        47  POPC      H10Y           -3.9599192580       17.4852747453       -2.9254369412  MEMB      47              0.0000000000
      6280        47  POPC      C311           -4.9270772795       15.8250676612       -1.8929687114  MEMB      47              0.0000000000
      6281        47  POPC      H11X           -5.7873297018       15.1329598102       -1.9749968432  MEMB      47              0.0000000000
      6282        47  POPC      H11Y           -4.9659371454       16.4278514178       -0.9560234875  MEMB      47              0.0000000000
      6283        47  POPC      C312           -3.7524898911       14.9682670689       -1.7788011401  MEMB      47              0.0000000000
      6284        47  POPC      H12X           -2.9187042165       15.7083840668       -1.8620600013  MEMB      47              0.0000000000
      6285        47  POPC      H12Y           -3.7930532066       14.2139693093       -2.6046342997  MEMB      47              0.0000000000
      6286        47  POPC      C313           -3.4297920929       14.2766839349       -0.4838152412  MEMB      47              0.0000000000
      6287        47  POPC      H13X           -3.4884513283       15.0589055133        0.2761925000  MEMB      47              0.0000000000
      6288        47  POPC      H13Y           -2.3727999360       13.9842080523       -0.3423594194  MEMB      47              0.0000000000
      6289        47  POPC      C314           -3.9983407082       12.8724275996       -0.3653045742  MEMB      47              0.0000000000
      6290        47  POPC      H14X           -3.5243562880       12.5569273779        0.5925669027  MEMB      47              0.0000000000
      6291        47  POPC      H14Y           -3.5766002771       12.1813384643       -1.1191331874  MEMB      47              0.0000000000
      6292        47  POPC      C315           -5.5287224337       12.7258756526       -0.4420708362  MEMB      47              0.0000000000
      6293        47  POPC      H15X           -5.8152189406       11.6891551247       -0.1277462708  MEMB      47              0.0000000000
      6294        47  POPC      H15Y           -5.8745048185       12.9182015225       -1.4634812792  MEMB      47              0.0000000000
      6295        47  POPC      C316           -6.2242186633       13.6368353806        0.5138145501  MEMB      47              0.0000000000
      6296        47  POPC      H16X           -5.7917302129       13.0604123345        1.3394709981  MEMB      47              0.0000000000
      6297        47  POPC      H16Y           -7.2951297275       13.5832947307        0.7630398381  MEMB      47              0.0000000000
      6298        47  POPC      H16Z           -5.8495825206       14.6871433257        0.5174123124  MEMB      47              0.0000000000
      6299        48  POPC      N               9.2654963949       13.1144682805      -18.6674553290  MEMB      48              0.0000000000
      6300        48  POPC      C12            10.7007376712       13.4923603833      -18.3550877711  MEMB      48              0.0000000000
      6301        48  POPC      H12A           11.3125918189       13.1766509044      -19.1940549270  MEMB      48              0.0000000000
      6302        48  POPC      H12B           11.0177623389       12.9448796365      -17.4811229679  MEMB      48              0.0000000000
      6303        48  POPC      C13             8.3342789349       13.8658256719      -17.7792225107  MEMB      48              0.0000000000
      6304        48  POPC      H13A            7.2980411214       13.6540650569      -17.9827430390  MEMB      48              0.0000000000
      6305        48  POPC      H13B            8.5457820759       13.6746691512      -16.7335688569  MEMB      48              0.0000000000
      6306        48  POPC      H13C            8.5417501879       14.9288395724      -17.9319816148  MEMB      48              0.0000000000
      6307        48  POPC      C14             9.0045563180       13.4014536265      -20.1173402203  MEMB      48              0.0000000000
      6308        48  POPC      H14A            9.2895147783       14.4330112198      -20.3309689242  MEMB      48              0.0000000000
      6309        48  POPC      H14B            9.6261820558       12.7615968575      -20.7446439796  MEMB      48              0.0000000000
      6310        48  POPC      H14C            7.9775574927       13.2346511127      -20.3931773192  MEMB      48              0.0000000000
      6311        48  POPC      C15             9.1497686065       11.6613980616      -18.5222426972  MEMB      48              0.0000000000
      6312        48  POPC      H15A            8.2957122541       11.2374182260      -19.0321557511  MEMB      48              0.0000000000
      6313        48  POPC      H15B            9.1840352800       11.2886930856      -17.5011182875  MEMB      48              0.0000000000
      6314        48  POPC      H15C            9.9881024734       11.1353420626      -19.0122515577  MEMB      48              0.0000000000
      6315        48  POPC      C11            11.0034626983       14.9780355460      -18.0928541313  MEMB      48              0.0000000000
      6316        48  POPC      H11A           12.1107491419       15.0754142947      -17.9772840037  MEMB      48              0.0000000000
      6317        48  POPC      H11B           10.5467627271       15.2797762793      -17.1240316350  MEMB      48              0.0000000000
      6318        48  POPC      P              11.1932810732       17.1154846595      -19.6225458397  MEMB      48              0.0000000000
      6319        48  POPC      O13            10.2851450876       17.8800022692      -20.5075849948  MEMB      48              0.0000000000
      6320        48  POPC      O14            12.5759431189       16.8317734697      -20.0893664866  MEMB      48              0.0000000000
      6321        48  POPC      O12            10.4790783217       15.7687634662      -19.1518966977  MEMB      48              0.0000000000
      6322        48  POPC      O11            11.2867779145       17.8653134332      -18.2426731060  MEMB      48              0.0000000000
      6323        48  POPC      C1             10.1238299280       18.3528160238      -17.5680386466  MEMB      48              0.0000000000
      6324        48  POPC      HA              9.3181637030       17.5832814966      -17.5423304343  MEMB      48              0.0000000000
      6325        48  POPC      HB              9.7020779657       19.2383976011      -18.0985316877  MEMB      48              0.0000000000
      6326        48  POPC      C2             10.4584234330       18.7280105793      -16.0899316115  MEMB      48              0.0000000000
      6327        48  POPC      HS             10.7095089449       19.8148075656      -16.0771765442  MEMB      48              0.0000000000
      6328        48  POPC      O21            11.5695500913       17.9351523277      -15.6207784041  MEMB      48              0.0000000000
      6329        48  POPC      C21            12.1826600557       18.3397527634      -14.5285113510  MEMB      48              0.0000000000
      6330        48  POPC      O22            11.8924807106       19.3011405465      -13.8418394830  MEMB      48              0.0000000000
      6331        48  POPC      C22            13.3514680012       17.4113442444      -14.2537529793  MEMB      48              0.0000000000
      6332        48  POPC      H2R            13.7240916169       17.6383420747      -13.2351116206  MEMB      48              0.0000000000
      6333        48  POPC      H2S            14.1474508241       17.6070138781      -14.9989602334  MEMB      48              0.0000000000
      6334        48  POPC      C3              9.2277784100       18.5196142292      -15.1929970827  MEMB      48              0.0000000000
      6335        48  POPC      HX              8.3913779714       19.0801253031      -15.6529957071  MEMB      48              0.0000000000
      6336        48  POPC      HY              9.3953930015       18.9534064070      -14.1817299803  MEMB      48              0.0000000000
      6337        48  POPC      O31             8.8779373914       17.1309032529      -15.1752068198  MEMB      48              0.0000000000
      6338        48  POPC      C31             9.1463584839       16.5216650701      -14.0368172915  MEMB      48              0.0000000000
      6339        48  POPC      O32             9.7046090451       16.9790987148      -13.0604363164  MEMB      48              0.0000000000
      6340        48  POPC      C32             8.4413187430       15.2406770054      -14.0786319786  MEMB      48              0.0000000000
      6341        48  POPC      H2X             9.0506069011       14.4203884364      -14.5052162196  MEMB      48              0.0000000000
      6342        48  POPC      H2Y             7.5607138711       15.4008061750      -14.7416334889  MEMB      48              0.0000000000
      6343        48  POPC      C23            12.9308426165       15.9423972192      -14.3092743293  MEMB      48              0.0000000000
      6344        48  POPC      H3R            12.8161507196       15.6299740693      -15.3751909602  MEMB      48              0.0000000000
      6345        48  POPC      H3S            11.9401232832       15.7947556186      -13.8227579331  MEMB      48              0.0000000000
      6346        48  POPC      C24            13.9306676780       15.0300642411      -13.5970896696  MEMB      48              0.0000000000
      6347        48  POPC      H4R            14.9244100620       15.0338524798      -14.0966908211  MEMB      48              0.0000000000
      6348        48  POPC      H4S            13.4666233950       14.0478828714      -13.7750782827  MEMB      48              0.0000000000
      6349        48  POPC      C25            14.1550368289       15.2088047533      -12.0725798150  MEMB      48              0.0000000000
      6350        48  POPC      H5R            14.8602293264       16.0402193497      -11.8778371591  MEMB      48              0.0000000000
      6351        48  POPC      H5S            14.6544289998       14.2841323765      -11.6923516892  MEMB      48              0.0000000000
      6352        48  POPC      C26            12.8936890784       15.4500787975      -11.2266836144  MEMB      48              0.0000000000
      6353        48  POPC      H6R            12.2992793542       14.5499800435      -11.3479405925  MEMB      48              0.0000000000
      6354        48  POPC      H6S            12.2634046993       16.2598475202      -11.6396506983  MEMB      48              0.0000000000
      6355        48  POPC      C27            13.1955935401       15.7250682992       -9.7373016491  MEMB      48              0.0000000000
      6356        48  POPC      H7R            13.6565004745       16.7365559421       -9.6753157919  MEMB      48              0.0000000000
      6357        48  POPC      H7S            13.9461268696       14.9787387311       -9.3965215909  MEMB      48              0.0000000000
      6358        48  POPC      C28            11.9963033889       15.6800456589       -8.7603504829  MEMB      48              0.0000000000
      6359        48  POPC      H8R            12.3795026943       15.7526795745       -7.7149599422  MEMB      48              0.0000000000
      6360        48  POPC      H8S            11.4907218869       14.6998134787       -8.8345806788  MEMB      48              0.0000000000
      6361        48  POPC      C29            11.0092481265       16.7751605661       -9.0685526567  MEMB      48              0.0000000000
      6362        48  POPC      H91            10.8100740671       16.9427167345      -10.1357083333  MEMB      48              0.0000000000
      6363        48  POPC      C210           10.3210399435       17.5031933424       -8.1870239590  MEMB      48              0.0000000000
      6364        48  POPC      H101            9.5939485073       18.2463298868       -8.5443098869  MEMB      48              0.0000000000
      6365        48  POPC      C211           10.3873041170       17.3759488694       -6.7075046167  MEMB      48              0.0000000000
      6366        48  POPC      H11R           11.1779539622       18.0296643628       -6.2847338214  MEMB      48              0.0000000000
      6367        48  POPC      H11S           10.5915550977       16.3340550422       -6.3609715337  MEMB      48              0.0000000000
      6368        48  POPC      C212            9.0149059543       17.8170129369       -6.2243948613  MEMB      48              0.0000000000
      6369        48  POPC      H12R            8.2174288075       17.1294676284       -6.5985123390  MEMB      48              0.0000000000
      6370        48  POPC      H12S            8.7482203351       18.8662744860       -6.4701884743  MEMB      48              0.0000000000
      6371        48  POPC      C213            9.0167461933       17.7283766155       -4.7329127488  MEMB      48              0.0000000000
      6372        48  POPC      H13R            9.3448838734       16.7097742771       -4.5747098628  MEMB      48              0.0000000000
      6373        48  POPC      H13S            7.9808888890       17.6746002736       -4.4628583189  MEMB      48              0.0000000000
      6374        48  POPC      C214            9.9307986702       18.7837259332       -4.0794649063  MEMB      48              0.0000000000
      6375        48  POPC      H14R            9.6632369315       19.7934332969       -4.4534625672  MEMB      48              0.0000000000
      6376        48  POPC      H14S           10.9550318350       18.4631720961       -4.3479645411  MEMB      48              0.0000000000
      6377        48  POPC      C215           10.0656832862       18.9107928928       -2.5794610268  MEMB      48              0.0000000000
      6378        48  POPC      H15R           10.9096691782       19.5264538496       -2.2091526064  MEMB      48              0.0000000000
      6379        48  POPC      H15S           10.3577947315       17.9172248481       -2.2189574089  MEMB      48              0.0000000000
      6380        48  POPC      C216            8.8201887153       19.5306076958       -2.0212972145  MEMB      48              0.0000000000
      6381        48  POPC      H16R            7.8625188267       19.0299023906       -2.2094479442  MEMB      48              0.0000000000
      6382        48  POPC      H16S            8.5776846985       20.4985909307       -2.5067426456  MEMB      48              0.0000000000
      6383        48  POPC      C217            8.9988871737       19.7780770046       -0.5621106971  MEMB      48              0.0000000000
      6384        48  POPC      H17R            8.0058764607       20.2661397459       -0.5772335611  MEMB      48              0.0000000000
      6385        48  POPC      H17S            9.8624171358       20.4369151891       -0.3735828978  MEMB      48              0.0000000000
      6386        48  POPC      C218            9.0423917508       18.8916352864        0.6445363013  MEMB      48              0.0000000000
      6387        48  POPC      H18R            9.0773984834       19.3610263231        1.6504917423  MEMB      48              0.0000000000
      6388        48  POPC      H18S            9.5277715427       17.9562309240        0.4374246037  MEMB      48              0.0000000000
      6389        48  POPC      H18T            8.1542544721       18.4060896847        0.9756395532  MEMB      48              0.0000000000
      6390        48  POPC      C33             8.0984951427       15.0107108036      -12.6162923683  MEMB      48              0.0000000000
      6391        48  POPC      H3X             7.2762837740       14.3693419277      -12.6035007208  MEMB      48              0.0000000000
      6392        48  POPC      H3Y             7.6246046822       15.7838806507      -12.0190956367  MEMB      48              0.0000000000
      6393        48  POPC      C34             9.0987818347       14.1693001281      -11.9022990624  MEMB      48              0.0000000000
      6394        48  POPC      H4X            10.1169267031       14.5272195310      -12.1521033278  MEMB      48              0.0000000000
      6395        48  POPC      H4Y             9.0352996428       13.1746889530      -12.3982100744  MEMB      48              0.0000000000
      6396        48  POPC      C35             8.9071130834       14.1143451008      -10.3693787287  MEMB      48              0.0000000000
      6397        48  POPC      H5X             9.3825936288       15.0120496513       -9.9628540339  MEMB      48              0.0000000000
      6398        48  POPC      H5Y             9.4276917965       13.2724496213       -9.9218167361  MEMB      48              0.0000000000
      6399        48  POPC      C36             7.5566865946       13.9697414372       -9.6960464552  MEMB      48              0.0000000000
      6400        48  POPC      H6X             7.0058911849       13.1041681540      -10.0235191447  MEMB      48              0.0000000000
      6401        48  POPC      H6Y             6.9557464276       14.8818882240       -9.7862376265  MEMB      48              0.0000000000
      6402        48  POPC      C37             7.6389190138       13.4427573810       -8.2817709385  MEMB      48              0.0000000000
      6403        48  POPC      H7X             7.8921097168       12.3626183987       -8.3400435350  MEMB      48              0.0000000000
      6404        48  POPC      H7Y             6.6370222798       13.5044542542       -7.8147755308  MEMB      48              0.0000000000
      6405        48  POPC      C38             8.4655305842       14.2888170231       -7.3975362753  MEMB      48              0.0000000000
      6406        48  POPC      H8X             8.2728912247       15.3103235792       -7.7825811297  MEMB      48              0.0000000000
      6407        48  POPC      H8Y             9.5398663810       14.0319784044       -7.4943337413  MEMB      48              0.0000000000
      6408        48  POPC      C39             7.9524063226       14.2091500895       -5.9802160241  MEMB      48              0.0000000000
      6409        48  POPC      H9X             7.1903139925       13.4111977794       -5.8409207402  MEMB      48              0.0000000000
      6410        48  POPC      H9Y             7.3210586566       15.0920123885       -5.7614032035  MEMB      48              0.0000000000
      6411        48  POPC      C310            9.1186792626       13.9204934496       -5.0262837317  MEMB      48              0.0000000000
      6412        48  POPC      H10X            9.7612864334       14.8098342056       -4.9616716930  MEMB      48              0.0000000000
      6413        48  POPC      H10Y            9.8310873796       13.1112997903       -5.2646914984  MEMB      48              0.0000000000
      6414        48  POPC      C311            8.5623822073       13.4758928884       -3.7240134624  MEMB      48              0.0000000000
      6415        48  POPC      H11X            7.7916712490       12.7584126575       -3.4854497427  MEMB      48              0.0000000000
      6416        48  POPC      H11Y            7.7168863336       14.1986152327       -3.7787779373  MEMB      48              0.0000000000
      6417        48  POPC      C312            9.6579650597       13.3129145947       -2.5936866637  MEMB      48              0.0000000000
      6418        48  POPC      H12X           10.2220277152       12.3962754921       -2.5163581808  MEMB      48              0.0000000000
      6419        48  POPC      H12Y            9.0279557109       13.3361147098       -1.6674591511  MEMB      48              0.0000000000
      6420        48  POPC      C313           10.8623371956       14.2627141140       -2.4557088908  MEMB      48              0.0000000000
      6421        48  POPC      H13X           10.7084833277       15.3018954207       -2.7001407214  MEMB      48              0.0000000000
      6422        48  POPC      H13Y           11.5952865956       14.1145227304       -3.2544188792  MEMB      48              0.0000000000
      6423        48  POPC      C314           11.1743775456       14.5569947809       -0.9497492082  MEMB      48              0.0000000000
      6424        48  POPC      H14X           11.7367927739       13.6386477479       -0.8804993890  MEMB      48              0.0000000000
      6425        48  POPC      H14Y           10.3794673601       14.5230992194       -0.1775666370  MEMB      48              0.0000000000
      6426        48  POPC      C315           11.8174385273       15.9220737037       -0.6843170988  MEMB      48              0.0000000000
      6427        48  POPC      H15X           12.4195579678       15.9626299612        0.2626353213  MEMB      48              0.0000000000
      6428        48  POPC      H15Y           11.2536038206       16.8605251446       -0.6248158361  MEMB      48              0.0000000000
      6429        48  POPC      C316           12.6758900890       16.0878769390       -1.8458444135  MEMB      48              0.0000000000
      6430        48  POPC      H16X           12.4178673735       16.1799022681       -2.9044519119  MEMB      48              0.0000000000
      6431        48  POPC      H16Y           13.0178591881       15.0211499187       -1.9722335954  MEMB      48              0.0000000000
      6432        48  POPC      H16Z           13.4646178886       16.7867508435       -1.5114305488  MEMB      48              0.0000000000
      6433        49  POPC      N               5.5852684687      -17.4609274408      -20.4363243651  MEMB      49              0.0000000000
      6434        49  POPC      C12             4.0693752310      -17.3983442051      -20.2073816135  MEMB      49              0.0000000000
      6435        49  POPC      H12A            3.5999222080      -17.0291771283      -21.1007617820  MEMB      49              0.0000000000
      6436        49  POPC      H12B            3.8636194161      -16.7257284895      -19.3812906116  MEMB      49              0.0000000000
      6437        49  POPC      C13             5.9146397834      -18.6608897624      -21.2678182205  MEMB      49              0.0000000000
      6438        49  POPC      H13A            5.5818293372      -18.5375344356      -22.2899095058  MEMB      49              0.0000000000
      6439        49  POPC      H13B            6.9849174164      -18.8419836268      -21.2836631470  MEMB      49              0.0000000000
      6440        49  POPC      H13C            5.4209235260      -19.5469024412      -20.8519390883  MEMB      49              0.0000000000
      6441        49  POPC      C14             6.0408169781      -16.2251874380      -21.1300837054  MEMB      49              0.0000000000
      6442        49  POPC      H14A            5.8417222191      -15.3439537768      -20.5304382301  MEMB      49              0.0000000000
      6443        49  POPC      H14B            7.1112451009      -16.2808114988      -21.3185672362  MEMB      49              0.0000000000
      6444        49  POPC      H14C            5.5249937781      -16.1460406819      -22.0696780283  MEMB      49              0.0000000000
      6445        49  POPC      C15             6.3281921045      -17.5522452064      -19.1345597435  MEMB      49              0.0000000000
      6446        49  POPC      H15A            5.9817188476      -18.4085786840      -18.5597107137  MEMB      49              0.0000000000
      6447        49  POPC      H15B            6.1841004567      -16.6663367124      -18.5265142075  MEMB      49              0.0000000000
      6448        49  POPC      H15C            7.3969004245      -17.6430923647      -19.2892896336  MEMB      49              0.0000000000
      6449        49  POPC      C11             3.2650982630      -18.6472610682      -19.8078308229  MEMB      49              0.0000000000
      6450        49  POPC      H11A            3.3959786037      -19.5288476020      -20.4640673289  MEMB      49              0.0000000000
      6451        49  POPC      H11B            2.1867929147      -18.3431125203      -19.9235419558  MEMB      49              0.0000000000
      6452        49  POPC      P               2.4319516637      -19.0455556705      -17.4128651154  MEMB      49              0.0000000000
      6453        49  POPC      O13             1.2297563648      -19.5955405482      -18.0612816525  MEMB      49              0.0000000000
      6454        49  POPC      O14             2.3083987443      -17.6817023069      -16.8438005056  MEMB      49              0.0000000000
      6455        49  POPC      O12             3.6177824208      -18.9837670524      -18.4741113366  MEMB      49              0.0000000000
      6456        49  POPC      O11             2.9959544061      -20.0646985620      -16.3636918192  MEMB      49              0.0000000000
      6457        49  POPC      C1              3.3336481422      -21.3730872567      -16.8365252781  MEMB      49              0.0000000000
      6458        49  POPC      HA              4.0668147748      -21.3410043019      -17.6793223652  MEMB      49              0.0000000000
      6459        49  POPC      HB              2.4426330629      -21.9650163832      -17.1442964241  MEMB      49              0.0000000000
      6460        49  POPC      C2              4.0336799323      -22.1044968040      -15.7076686256  MEMB      49              0.0000000000
      6461        49  POPC      HS              4.0012878774      -23.2101388244      -15.8285842278  MEMB      49              0.0000000000
      6462        49  POPC      O21             3.5163752212      -21.7973331791      -14.4739816702  MEMB      49              0.0000000000
      6463        49  POPC      C21             2.4023206793      -22.1425455459      -14.2575424202  MEMB      49              0.0000000000
      6464        49  POPC      O22             1.7754566927      -23.1223038542      -14.6571884341  MEMB      49              0.0000000000
      6465        49  POPC      C22             2.0000155054      -21.1675049977      -13.1911551162  MEMB      49              0.0000000000
      6466        49  POPC      H2R             1.5281080479      -22.0655202557      -12.7754170955  MEMB      49              0.0000000000
      6467        49  POPC      H2S             1.3504830025      -20.4184475789      -13.6652070052  MEMB      49              0.0000000000
      6468        49  POPC      C3              5.4407819619      -21.6548026025      -15.6406945218  MEMB      49              0.0000000000
      6469        49  POPC      HX              5.9182918636      -21.9913120245      -16.5809330452  MEMB      49              0.0000000000
      6470        49  POPC      HY              5.8633262751      -22.2648179960      -14.8081943362  MEMB      49              0.0000000000
      6471        49  POPC      O31             5.5835416685      -20.2020741402      -15.4741304814  MEMB      49              0.0000000000
      6472        49  POPC      C31             5.3986330945      -19.8158868565      -14.1941685791  MEMB      49              0.0000000000
      6473        49  POPC      O32             5.2384317626      -20.6060329884      -13.3023680136  MEMB      49              0.0000000000
      6474        49  POPC      C32             5.8442089628      -18.3642658708      -13.9365658240  MEMB      49              0.0000000000
      6475        49  POPC      H2X             6.8583942844      -18.2371601887      -14.2788901120  MEMB      49              0.0000000000
      6476        49  POPC      H2Y             5.9374234169      -18.1212309609      -12.8571972936  MEMB      49              0.0000000000
      6477        49  POPC      C23             2.7064201003      -20.5262684145      -11.9617697693  MEMB      49              0.0000000000
      6478        49  POPC      H3R             1.9103454226      -20.2110525073      -11.2329266985  MEMB      49              0.0000000000
      6479        49  POPC      H3S             3.3399109430      -19.7006742461      -12.2855992814  MEMB      49              0.0000000000
      6480        49  POPC      C24             3.5639234880      -21.5023764283      -11.2334255266  MEMB      49              0.0000000000
      6481        49  POPC      H4R             4.3562491195      -21.9890126981      -11.8282008882  MEMB      49              0.0000000000
      6482        49  POPC      H4S             2.8672223217      -22.2571873759      -11.5374100786  MEMB      49              0.0000000000
      6483        49  POPC      C25             3.7957626563      -21.3079493748       -9.6440327109  MEMB      49              0.0000000000
      6484        49  POPC      H5R             2.9954492489      -20.6697775941       -9.2653715036  MEMB      49              0.0000000000
      6485        49  POPC      H5S             4.6247337405      -20.6292075410       -9.8714487752  MEMB      49              0.0000000000
      6486        49  POPC      C26             4.0856901187      -22.3819755335       -8.3841602511  MEMB      49              0.0000000000
      6487        49  POPC      H6R             4.2578213426      -21.7592585980       -7.5045631344  MEMB      49              0.0000000000
      6488        49  POPC      H6S             4.9239538226      -23.0678407966       -8.5833099868  MEMB      49              0.0000000000
      6489        49  POPC      C27             3.1056483194      -23.2970443662       -7.5685180512  MEMB      49              0.0000000000
      6490        49  POPC      H7R             2.7984870350      -24.1683792116       -8.1624940730  MEMB      49              0.0000000000
      6491        49  POPC      H7S             2.2668803456      -22.6646837649       -7.2844985136  MEMB      49              0.0000000000
      6492        49  POPC      C28             3.3583810575      -24.4038150937       -6.5980905085  MEMB      49              0.0000000000
      6493        49  POPC      H8R             4.2098350705      -24.2746472363       -5.9256827412  MEMB      49              0.0000000000
      6494        49  POPC      H8S             3.4657631679      -25.3514570875       -6.9742067420  MEMB      49              0.0000000000
      6495        49  POPC      C29             2.0733990737      -25.0140817416       -6.2415033109  MEMB      49              0.0000000000
      6496        49  POPC      H91             1.6118787942      -25.7282674944       -6.9638604818  MEMB      49              0.0000000000
      6497        49  POPC      C210            1.4360556357      -24.3919622221       -5.3407343332  MEMB      49              0.0000000000
      6498        49  POPC      H101            0.5538353207      -24.8619414848       -4.8821485841  MEMB      49              0.0000000000
      6499        49  POPC      C211            2.1035655046      -23.1721288821       -4.7732603885  MEMB      49              0.0000000000
      6500        49  POPC      H11R            1.4523035969      -22.3278358964       -4.8790867476  MEMB      49              0.0000000000
      6501        49  POPC      H11S            3.1160169159      -22.8034955961       -5.0951969310  MEMB      49              0.0000000000
      6502        49  POPC      C212            2.4451011370      -23.5400973282       -3.4104313550  MEMB      49              0.0000000000
      6503        49  POPC      H12R            1.6106596202      -24.1947919431       -3.0991991196  MEMB      49              0.0000000000
      6504        49  POPC      H12S            2.2829072291      -22.6681167796       -2.7502367855  MEMB      49              0.0000000000
      6505        49  POPC      C213            3.9329108995      -24.0019831607       -3.3734877625  MEMB      49              0.0000000000
      6506        49  POPC      H13R            4.6846980101      -23.1939507107       -3.4329621082  MEMB      49              0.0000000000
      6507        49  POPC      H13S            4.1795779106      -24.9697796566       -3.8789041222  MEMB      49              0.0000000000
      6508        49  POPC      C214            4.2201674932      -24.2345194513       -2.0014789164  MEMB      49              0.0000000000
      6509        49  POPC      H14R            3.7453137582      -25.2513994180       -2.0274400357  MEMB      49              0.0000000000
      6510        49  POPC      H14S            3.5333115450      -23.5337732996       -1.4725184174  MEMB      49              0.0000000000
      6511        49  POPC      C215            5.5910336707      -24.4341834415       -1.3120479686  MEMB      49              0.0000000000
      6512        49  POPC      H15R            5.8228068609      -25.4990962548       -1.2572462323  MEMB      49              0.0000000000
      6513        49  POPC      H15S            5.3858910079      -24.0242304992       -0.2789580876  MEMB      49              0.0000000000
      6514        49  POPC      C216            6.7291738397      -23.5198870538       -1.0298616513  MEMB      49              0.0000000000
      6515        49  POPC      H16R            6.1687060384      -22.6032661121       -1.2397482449  MEMB      49              0.0000000000
      6516        49  POPC      H16S            7.3952552858      -23.6845839653       -1.8589391240  MEMB      49              0.0000000000
      6517        49  POPC      C217            7.3695405270      -23.7674293561        0.4070700956  MEMB      49              0.0000000000
      6518        49  POPC      H17R            6.7120930081      -23.8202350917        1.2696748396  MEMB      49              0.0000000000
      6519        49  POPC      H17S            7.5474050179      -23.0250397319        1.0993949259  MEMB      49              0.0000000000
      6520        49  POPC      C218            8.6483986838      -24.4817269975        0.4743786099  MEMB      49              0.0000000000
      6521        49  POPC      H18R            8.9424107438      -24.5890847873       -0.5829840837  MEMB      49              0.0000000000
      6522        49  POPC      H18S            8.4130179947      -25.4180561374        0.9794315711  MEMB      49              0.0000000000
      6523        49  POPC      H18T            9.4732806115      -24.3628742621        1.1783973595  MEMB      49              0.0000000000
      6524        49  POPC      C33             5.0325598421      -17.4282845402      -14.7968201549  MEMB      49              0.0000000000
      6525        49  POPC      H3X             3.9778848942      -17.7451672364      -14.6572229473  MEMB      49              0.0000000000
      6526        49  POPC      H3Y             5.3278321719      -17.6160504959      -15.8568177628  MEMB      49              0.0000000000
      6527        49  POPC      C34             5.2131860136      -15.9524885399      -14.4596779287  MEMB      49              0.0000000000
      6528        49  POPC      H4X             5.7326684803      -15.4226606873      -15.2914049533  MEMB      49              0.0000000000
      6529        49  POPC      H4Y             5.8741319891      -15.8652317038      -13.5689660877  MEMB      49              0.0000000000
      6530        49  POPC      C35             3.8797887602      -15.2491343619      -14.1638559751  MEMB      49              0.0000000000
      6531        49  POPC      H5X             3.0342422093      -15.9684950663      -14.2098613798  MEMB      49              0.0000000000
      6532        49  POPC      H5Y             3.7042995905      -14.5013786114      -14.9717506574  MEMB      49              0.0000000000
      6533        49  POPC      C36             3.9177700511      -14.5100262343      -12.8167257687  MEMB      49              0.0000000000
      6534        49  POPC      H6X             3.0656038360      -13.8004987911      -12.7564805034  MEMB      49              0.0000000000
      6535        49  POPC      H6Y             4.8573436467      -13.9113524882      -12.8313215463  MEMB      49              0.0000000000
      6536        49  POPC      C37             3.8738020558      -15.4099755113      -11.5677235482  MEMB      49              0.0000000000
      6537        49  POPC      H7X             4.0076436874      -14.7776864345      -10.6612628305  MEMB      49              0.0000000000
      6538        49  POPC      H7Y             4.7203452159      -16.1322829248      -11.6023758960  MEMB      49              0.0000000000
      6539        49  POPC      C38             2.5486762376      -16.1737777725      -11.4177050027  MEMB      49              0.0000000000
      6540        49  POPC      H8X             2.2701641980      -16.6083872526      -12.4046471232  MEMB      49              0.0000000000
      6541        49  POPC      H8Y             1.7431917312      -15.4697485172      -11.1178455515  MEMB      49              0.0000000000
      6542        49  POPC      C39             2.6164016111      -17.3735225891      -10.4599438723  MEMB      49              0.0000000000
      6543        49  POPC      H9X             3.3688808627      -18.0740557539      -10.8910078873  MEMB      49              0.0000000000
      6544        49  POPC      H9Y             1.6254777296      -17.8805051842      -10.4595588545  MEMB      49              0.0000000000
      6545        49  POPC      C310            3.0273184978      -17.0648319378       -9.0139981103  MEMB      49              0.0000000000
      6546        49  POPC      H10X            2.2902455416      -16.4008556790       -8.5143985572  MEMB      49              0.0000000000
      6547        49  POPC      H10Y            4.0107876809      -16.5439613950       -9.0520076586  MEMB      49              0.0000000000
      6548        49  POPC      C311            3.2123023550      -18.3431060498       -8.1851775867  MEMB      49              0.0000000000
      6549        49  POPC      H11X            3.9750147999      -18.9491325367       -8.7214803250  MEMB      49              0.0000000000
      6550        49  POPC      H11Y            2.2690342722      -18.9330202058       -8.1406195041  MEMB      49              0.0000000000
      6551        49  POPC      C312            3.7150793864      -18.0694628337       -6.7652204771  MEMB      49              0.0000000000
      6552        49  POPC      H12X            3.0643912677      -17.3107227501       -6.2808092541  MEMB      49              0.0000000000
      6553        49  POPC      H12Y            4.7482581740      -17.6600832188       -6.8398820383  MEMB      49              0.0000000000
      6554        49  POPC      C313            3.7604129056      -19.3172045622       -5.8807641625  MEMB      49              0.0000000000
      6555        49  POPC      H13X            4.4465462376      -20.0483357131       -6.3512551743  MEMB      49              0.0000000000
      6556        49  POPC      H13Y            2.7562299753      -19.7910237091       -5.8019141171  MEMB      49              0.0000000000
      6557        49  POPC      C314            4.2682595832      -19.0154085033       -4.4679009623  MEMB      49              0.0000000000
      6558        49  POPC      H14X            3.6717641811      -18.1709146752       -4.0637471627  MEMB      49              0.0000000000
      6559        49  POPC      H14Y            5.3110224222      -18.6568772877       -4.5761330594  MEMB      49              0.0000000000
      6560        49  POPC      C315            4.1447640077      -20.2750711365       -3.5871447906  MEMB      49              0.0000000000
      6561        49  POPC      H15X            4.9337044880      -21.0000251767       -3.9033069790  MEMB      49              0.0000000000
      6562        49  POPC      H15Y            3.1400322703      -20.7013133604       -3.7482838985  MEMB      49              0.0000000000
      6563        49  POPC      C316            4.2178903508      -20.1794481102       -2.0846608503  MEMB      49              0.0000000000
      6564        49  POPC      H16X            5.2611951594      -19.9964035225       -1.8904990380  MEMB      49              0.0000000000
      6565        49  POPC      H16Y            4.0337719949      -21.1317431925       -1.5581509319  MEMB      49              0.0000000000
      6566        49  POPC      H16Z            3.6137290638      -19.3907383029       -1.6035495130  MEMB      49              0.0000000000
      6567        50  POPC      N               1.2327900090       18.3079145028      -20.2825041283  MEMB      50              0.0000000000
      6568        50  POPC      C12             1.1039411741       19.7993854168      -19.9806375819  MEMB      50              0.0000000000
      6569        50  POPC      H12A            0.0625533367       20.0675727007      -19.9109690107  MEMB      50              0.0000000000
      6570        50  POPC      H12B            1.5579597665       20.3494784743      -20.8052513156  MEMB      50              0.0000000000
      6571        50  POPC      C13             0.5950599902       17.4947958116      -19.2135809750  MEMB      50              0.0000000000
      6572        50  POPC      H13A            0.7578889416       16.4405132680      -19.3975885240  MEMB      50              0.0000000000
      6573        50  POPC      H13B            1.0103269130       17.7403763141      -18.2351058238  MEMB      50              0.0000000000
      6574        50  POPC      H13C           -0.4718614686       17.6437868635      -19.1723439263  MEMB      50              0.0000000000
      6575        50  POPC      C14             0.6958629136       17.8794758137      -21.6199284920  MEMB      50              0.0000000000
      6576        50  POPC      H14A            0.7764842666       18.6723520854      -22.3616956789  MEMB      50              0.0000000000
      6577        50  POPC      H14B            1.3038049484       17.0582639067      -21.9921319541  MEMB      50              0.0000000000
      6578        50  POPC      H14C           -0.3269937172       17.5384416975      -21.5772308381  MEMB      50              0.0000000000
      6579        50  POPC      C15             2.7047476915       18.0251228175      -20.3033231707  MEMB      50              0.0000000000
      6580        50  POPC      H15A            3.2097967434       18.7417047787      -20.9481916544  MEMB      50              0.0000000000
      6581        50  POPC      H15B            2.9201383795       17.0463512487      -20.6750179863  MEMB      50              0.0000000000
      6582        50  POPC      H15C            3.1356583246       18.1979787151      -19.3191154572  MEMB      50              0.0000000000
      6583        50  POPC      C11             1.8011246368       20.3592392708      -18.6954977151  MEMB      50              0.0000000000
      6584        50  POPC      H11A            1.4417709356       19.8034582958      -17.8014076128  MEMB      50              0.0000000000
      6585        50  POPC      H11B            1.4539867607       21.4196273116      -18.6010916173  MEMB      50              0.0000000000
      6586        50  POPC      P               4.1293607345       21.2603225614      -17.8421640651  MEMB      50              0.0000000000
      6587        50  POPC      O13             3.5477549768       22.6075033773      -17.8447839623  MEMB      50              0.0000000000
      6588        50  POPC      O14             5.5491745035       21.1110220109      -18.2281664209  MEMB      50              0.0000000000
      6589        50  POPC      O12             3.2324353322       20.3034406375      -18.7661695509  MEMB      50              0.0000000000
      6590        50  POPC      O11             3.9617269377       20.6120785071      -16.3919004480  MEMB      50              0.0000000000
      6591        50  POPC      C1              4.3831031386       19.2384441490      -16.3414411880  MEMB      50              0.0000000000
      6592        50  POPC      HA              5.4103376867       19.1185149977      -16.7598690497  MEMB      50              0.0000000000
      6593        50  POPC      HB              3.6837074083       18.6152576531      -16.9394074248  MEMB      50              0.0000000000
      6594        50  POPC      C2              4.4592201183       18.6364777152      -14.9107918946  MEMB      50              0.0000000000
      6595        50  POPC      HS              4.4794912331       17.5295351480      -14.9944130445  MEMB      50              0.0000000000
      6596        50  POPC      O21             3.3890494859       18.9947340366      -14.0563040234  MEMB      50              0.0000000000
      6597        50  POPC      C21             2.1837596633       18.7694898923      -14.4655895138  MEMB      50              0.0000000000
      6598        50  POPC      O22             1.7913441062       18.2267574010      -15.4843728706  MEMB      50              0.0000000000
      6599        50  POPC      C22             1.2951938030       19.2716721163      -13.4014530960  MEMB      50              0.0000000000
      6600        50  POPC      H2R             1.6234307119       19.0433952446      -12.3695618972  MEMB      50              0.0000000000
      6601        50  POPC      H2S             0.2641872215       18.8865237602      -13.5703284578  MEMB      50              0.0000000000
      6602        50  POPC      C3              5.7723952266       19.0280003570      -14.2090696970  MEMB      50              0.0000000000
      6603        50  POPC      HX              5.8219882041       20.1282207434      -14.0154097270  MEMB      50              0.0000000000
      6604        50  POPC      HY              6.5787584871       18.7914940756      -14.9184316250  MEMB      50              0.0000000000
      6605        50  POPC      O31             5.9784833381       18.1824296444      -13.0645421190  MEMB      50              0.0000000000
      6606        50  POPC      C31             5.7945302193       18.7788335712      -11.9070549152  MEMB      50              0.0000000000
      6607        50  POPC      O32             5.5731677653       19.9599300407      -11.7424957749  MEMB      50              0.0000000000
      6608        50  POPC      C32             6.0469592203       17.7909656319      -10.7893622946  MEMB      50              0.0000000000
      6609        50  POPC      H2X             6.2922788124       18.3439234338       -9.8628837701  MEMB      50              0.0000000000
      6610        50  POPC      H2Y             6.9605987310       17.2514344162      -11.0790815961  MEMB      50              0.0000000000
      6611        50  POPC      C23             1.3125818385       20.7477930328      -13.4804425827  MEMB      50              0.0000000000
      6612        50  POPC      H3R             1.0259070838       21.0829342340      -14.5267125773  MEMB      50              0.0000000000
      6613        50  POPC      H3S             2.2393476921       21.3324561719      -13.2899034332  MEMB      50              0.0000000000
      6614        50  POPC      C24             0.1642613930       21.0686279696      -12.5610346536  MEMB      50              0.0000000000
      6615        50  POPC      H4R            -0.6896702276       20.4793633448      -12.9476294374  MEMB      50              0.0000000000
      6616        50  POPC      H4S             0.3060247912       22.1240298958      -12.7885137509  MEMB      50              0.0000000000
      6617        50  POPC      C25            -0.2543533407       20.9695121880      -11.1251009434  MEMB      50              0.0000000000
      6618        50  POPC      H5R            -0.5500154852       19.9562242585      -10.8567935130  MEMB      50              0.0000000000
      6619        50  POPC      H5S            -1.1327611963       21.6384479804      -10.9073893480  MEMB      50              0.0000000000
      6620        50  POPC      C26             0.8560977494       21.4852646372      -10.4244359347  MEMB      50              0.0000000000
      6621        50  POPC      H6R             1.7333733519       21.0160660802      -10.9105293071  MEMB      50              0.0000000000
      6622        50  POPC      H6S             0.8588375042       21.2108358737       -9.3560846397  MEMB      50              0.0000000000
      6623        50  POPC      C27             0.8569986106       22.9544679283      -10.6940631750  MEMB      50              0.0000000000
      6624        50  POPC      H7R            -0.0073200691       23.5838348502      -10.3513756318  MEMB      50              0.0000000000
      6625        50  POPC      H7S             1.1877861892       23.2654213710      -11.6877098400  MEMB      50              0.0000000000
      6626        50  POPC      C28             1.8549100723       23.1769444862       -9.9772803143  MEMB      50              0.0000000000
      6627        50  POPC      H8R             1.4187303829       23.2387759209       -8.9875360962  MEMB      50              0.0000000000
      6628        50  POPC      H8S             1.8423764635       24.4175237937       -9.8016521200  MEMB      50              0.0000000000
      6629        50  POPC      C29             3.5507731148       22.8513043777      -10.3897657204  MEMB      50              0.0000000000
      6630        50  POPC      H91             4.1691577234       23.2667343719      -10.7048727253  MEMB      50              0.0000000000
      6631        50  POPC      C210            4.1668244110       21.4643257590      -10.1246143768  MEMB      50              0.0000000000
      6632        50  POPC      H101            5.2843809431       21.7452251481      -10.2718244714  MEMB      50              0.0000000000
      6633        50  POPC      C211            3.9656735543       20.6353836310       -8.9075224098  MEMB      50              0.0000000000
      6634        50  POPC      H11R            4.0704678753       19.7027430746       -9.6789005412  MEMB      50              0.0000000000
      6635        50  POPC      H11S            2.9307292430       20.5381434158       -8.6542782366  MEMB      50              0.0000000000
      6636        50  POPC      C212            5.0990654230       20.3828773111       -7.9254161882  MEMB      50              0.0000000000
      6637        50  POPC      H12R            5.3262131088       21.3497974773       -7.3908858454  MEMB      50              0.0000000000
      6638        50  POPC      H12S            6.1278165201       20.1545169699       -8.2542334336  MEMB      50              0.0000000000
      6639        50  POPC      C213            4.5919182128       19.4050531181       -6.8471943721  MEMB      50              0.0000000000
      6640        50  POPC      H13R            4.5926690377       18.3982387160       -7.2865231658  MEMB      50              0.0000000000
      6641        50  POPC      H13S            3.5249951417       19.5519155189       -6.5327032380  MEMB      50              0.0000000000
      6642        50  POPC      C214            5.3132301213       19.4887797214       -5.5354873340  MEMB      50              0.0000000000
      6643        50  POPC      H14R            5.0149441617       20.3604801332       -4.9151156155  MEMB      50              0.0000000000
      6644        50  POPC      H14S            6.4126789218       19.5338246074       -5.6741939005  MEMB      50              0.0000000000
      6645        50  POPC      C215            4.9419282565       18.2643911308       -4.7789177370  MEMB      50              0.0000000000
      6646        50  POPC      H15R            5.3051101844       17.3418943679       -5.3008701269  MEMB      50              0.0000000000
      6647        50  POPC      H15S            3.8631953433       18.1561579741       -4.5164709307  MEMB      50              0.0000000000
      6648        50  POPC      C216            5.6440658687       18.3181300107       -3.5160970258  MEMB      50              0.0000000000
      6649        50  POPC      H16R            5.4676437885       19.1836373305       -2.8388474683  MEMB      50              0.0000000000
      6650        50  POPC      H16S            6.6887689708       18.5400581767       -3.6920386163  MEMB      50              0.0000000000
      6651        50  POPC      C217            5.3333014656       16.9480210032       -2.9805840903  MEMB      50              0.0000000000
      6652        50  POPC      H17R            6.3362554392       16.9251325437       -2.6580743660  MEMB      50              0.0000000000
      6653        50  POPC      H17S            5.4757540165       15.9522834181       -3.4202453949  MEMB      50              0.0000000000
      6654        50  POPC      C218            4.1558797542       17.0744100334       -2.0275093990  MEMB      50              0.0000000000
      6655        50  POPC      H18R            4.1792898233       18.0916120167       -1.5692316597  MEMB      50              0.0000000000
      6656        50  POPC      H18S            4.1892302477       16.3551776520       -1.1983868449  MEMB      50              0.0000000000
      6657        50  POPC      H18T            3.2065211134       16.9675518458       -2.5591873835  MEMB      50              0.0000000000
      6658        50  POPC      C33             4.8822842156       16.7954556251      -10.6075899343  MEMB      50              0.0000000000
      6659        50  POPC      H3X             5.2065889367       16.0396677562       -9.8593025193  MEMB      50              0.0000000000
      6660        50  POPC      H3Y             4.6781711027       16.2641556663      -11.5615180198  MEMB      50              0.0000000000
      6661        50  POPC      C34             3.5932236617       17.4415084488      -10.0937938176  MEMB      50              0.0000000000
      6662        50  POPC      H4X             3.2224783062       18.2093443689      -10.8159649814  MEMB      50              0.0000000000
      6663        50  POPC      H4Y             3.8388113004       17.9407994910       -9.1365921855  MEMB      50              0.0000000000
      6664        50  POPC      C35             2.4668383636       16.4638875506       -9.7760183105  MEMB      50              0.0000000000
      6665        50  POPC      H5X             2.8058747532       15.7565500932       -8.9885684060  MEMB      50              0.0000000000
      6666        50  POPC      H5Y             2.2529873980       15.8893110140      -10.7020615201  MEMB      50              0.0000000000
      6667        50  POPC      C36             1.1877613261       17.1510361789       -9.2713916753  MEMB      50              0.0000000000
      6668        50  POPC      H6X             0.3835193578       16.3823931934       -9.2538871560  MEMB      50              0.0000000000
      6669        50  POPC      H6Y             0.8690700904       17.9462392764       -9.9842490167  MEMB      50              0.0000000000
      6670        50  POPC      C37             1.3067551438       17.7733926652       -7.8650050507  MEMB      50              0.0000000000
      6671        50  POPC      H7X             2.1923703223       18.4436846611       -7.8299421602  MEMB      50              0.0000000000
      6672        50  POPC      H7Y             1.4480282534       16.9796608398       -7.1025142829  MEMB      50              0.0000000000
      6673        50  POPC      C38             0.0573415170       18.6039674733       -7.5418616290  MEMB      50              0.0000000000
      6674        50  POPC      H8X            -0.8424582883       17.9821573036       -7.7247176152  MEMB      50              0.0000000000
      6675        50  POPC      H8Y             0.0535939673       19.4326170735       -8.2949538296  MEMB      50              0.0000000000
      6676        50  POPC      C39            -0.0262473389       19.1871047941       -6.1170340417  MEMB      50              0.0000000000
      6677        50  POPC      H9X            -0.9036327530       19.8507918518       -5.9984582369  MEMB      50              0.0000000000
      6678        50  POPC      H9Y             0.8636360543       19.7695022405       -5.9468629298  MEMB      50              0.0000000000
      6679        50  POPC      C310            0.2330595811       18.2994220773       -4.9067185133  MEMB      50              0.0000000000
      6680        50  POPC      H10X            1.2873913772       17.9399712685       -4.9682712172  MEMB      50              0.0000000000
      6681        50  POPC      H10Y           -0.4763300656       17.4523280452       -4.9412441937  MEMB      50              0.0000000000
      6682        50  POPC      C311            0.0557484884       19.0289077618       -3.5654744999  MEMB      50              0.0000000000
      6683        50  POPC      H11X           -0.1435848182       18.2503365439       -2.7975625301  MEMB      50              0.0000000000
      6684        50  POPC      H11Y           -0.8388527929       19.6955677009       -3.6065229263  MEMB      50              0.0000000000
      6685        50  POPC      C312            1.2370890137       19.8343741949       -3.0022269977  MEMB      50              0.0000000000
      6686        50  POPC      H12X            1.5299836836       20.5974791454       -3.7202148831  MEMB      50              0.0000000000
      6687        50  POPC      H12Y            2.1694485862       19.2594319043       -2.8630949141  MEMB      50              0.0000000000
      6688        50  POPC      C313            0.6816956202       20.4699565240       -1.7296472982  MEMB      50              0.0000000000
      6689        50  POPC      H13X            0.3475283850       19.6793355666       -1.0237674590  MEMB      50              0.0000000000
      6690        50  POPC      H13Y           -0.1083946804       21.1811881798       -2.0727895360  MEMB      50              0.0000000000
      6691        50  POPC      C314            1.5510158410       21.2365192016       -0.8308746693  MEMB      50              0.0000000000
      6692        50  POPC      H14X            1.1701224509       22.0726213137       -0.1859150162  MEMB      50              0.0000000000
      6693        50  POPC      H14Y            1.9268074234       21.9625764112       -1.5017374362  MEMB      50              0.0000000000
      6694        50  POPC      C315            2.6879314706       20.3545629458       -0.2775251656  MEMB      50              0.0000000000
      6695        50  POPC      H15X            3.3063875797       19.7876822025       -0.9962061348  MEMB      50              0.0000000000
      6696        50  POPC      H15Y            2.3963912665       19.7892119788        0.6128910875  MEMB      50              0.0000000000
      6697        50  POPC      C316            3.5645399773       21.2416492451        0.3369311771  MEMB      50              0.0000000000
      6698        50  POPC      H16X            4.5509432610       21.2918893127        0.5917672902  MEMB      50              0.0000000000
      6699        50  POPC      H16Y            3.0650313504       22.1403823509       -0.0102666105  MEMB      50              0.0000000000
      6700        50  POPC      H16Z            3.8315818117       22.2455779128        0.1710908497  MEMB      50              0.0000000000
      6701        51  POPC      N             -10.3858402310      -16.4143863577      -21.0788333511  MEMB      51              0.0000000000
      6702        51  POPC      C12           -11.4927419879      -17.3615895536      -20.6328799796  MEMB      51              0.0000000000
      6703        51  POPC      H12A          -11.3334338010      -18.3160031041      -21.1097130306  MEMB      51              0.0000000000
      6704        51  POPC      H12B          -12.4374492790      -16.9617492372      -20.9914128024  MEMB      51              0.0000000000
      6705        51  POPC      C13           -10.3379828647      -16.4020373543      -22.5820505516  MEMB      51              0.0000000000
      6706        51  POPC      H13A          -10.1384737394      -17.3844698356      -22.9963848784  MEMB      51              0.0000000000
      6707        51  POPC      H13B          -11.2896869557      -16.0855089978      -22.9944113731  MEMB      51              0.0000000000
      6708        51  POPC      H13C           -9.5942205964      -15.7003680943      -22.9612771938  MEMB      51              0.0000000000
      6709        51  POPC      C14           -10.6730357401      -15.0387056843      -20.5588187998  MEMB      51              0.0000000000
      6710        51  POPC      H14A          -10.6530777793      -15.0801617171      -19.4655331141  MEMB      51              0.0000000000
      6711        51  POPC      H14B           -9.9205254260      -14.3352915750      -20.8934212681  MEMB      51              0.0000000000
      6712        51  POPC      H14C          -11.6696276758      -14.7075703405      -20.8033182297  MEMB      51              0.0000000000
      6713        51  POPC      C15            -9.0593702661      -16.7527197497      -20.4885824963  MEMB      51              0.0000000000
      6714        51  POPC      H15A           -9.1288475813      -16.6202880441      -19.4050524456  MEMB      51              0.0000000000
      6715        51  POPC      H15B           -8.2961415214      -16.0665217179      -20.8479019198  MEMB      51              0.0000000000
      6716        51  POPC      H15C           -8.7303011350      -17.7578055378      -20.6729593397  MEMB      51              0.0000000000
      6717        51  POPC      C11           -11.7244663768      -17.6195908369      -19.1275794909  MEMB      51              0.0000000000
      6718        51  POPC      H11A          -10.8150731144      -18.0827905200      -18.6813993707  MEMB      51              0.0000000000
      6719        51  POPC      H11B          -12.5487149865      -18.3733076201      -19.0465001513  MEMB      51              0.0000000000
      6720        51  POPC      P             -12.5078907959      -16.5396834638      -16.9012872189  MEMB      51              0.0000000000
      6721        51  POPC      O13           -12.9409592665      -17.9118814792      -16.5633508456  MEMB      51              0.0000000000
      6722        51  POPC      O14           -13.3459077628      -15.3806603891      -16.5180111546  MEMB      51              0.0000000000
      6723        51  POPC      O12           -12.1047766346      -16.4102287690      -18.4632438300  MEMB      51              0.0000000000
      6724        51  POPC      O11           -11.0895566990      -16.3707280526      -16.2571077378  MEMB      51              0.0000000000
      6725        51  POPC      C1            -10.3537305864      -15.2542463669      -16.6579071743  MEMB      51              0.0000000000
      6726        51  POPC      HA            -10.9573875554      -14.3187358060      -16.8697060300  MEMB      51              0.0000000000
      6727        51  POPC      HB             -9.7719443037      -15.4619190195      -17.5908862991  MEMB      51              0.0000000000
      6728        51  POPC      C2             -9.3230769392      -14.8447937161      -15.6082485070  MEMB      51              0.0000000000
      6729        51  POPC      HS             -8.9408528900      -14.1459087475      -16.3594770099  MEMB      51              0.0000000000
      6730        51  POPC      O21            -8.4695470245      -15.9737822352      -15.0105195038  MEMB      51              0.0000000000
      6731        51  POPC      C21            -7.1179622276      -16.3209522343      -14.7778597883  MEMB      51              0.0000000000
      6732        51  POPC      O22            -6.0513773590      -15.7975163678      -14.9309601282  MEMB      51              0.0000000000
      6733        51  POPC      C22            -6.7452122878      -17.4692415384      -14.1211253085  MEMB      51              0.0000000000
      6734        51  POPC      H2R            -5.7516805562      -17.2557449611      -13.5964597793  MEMB      51              0.0000000000
      6735        51  POPC      H2S            -6.5659942306      -18.1476051910      -14.9739245701  MEMB      51              0.0000000000
      6736        51  POPC      C3            -10.0484377386      -13.9954082706      -14.4843440609  MEMB      51              0.0000000000
      6737        51  POPC      HX            -10.6793236483      -13.2071520717      -14.9433048861  MEMB      51              0.0000000000
      6738        51  POPC      HY             -9.4753734636      -13.2418071574      -13.9337678252  MEMB      51              0.0000000000
      6739        51  POPC      O31           -10.7729100239      -14.8260183792      -13.6089580502  MEMB      51              0.0000000000
      6740        51  POPC      C31           -11.1790863272      -14.2678919921      -12.5099045341  MEMB      51              0.0000000000
      6741        51  POPC      O32           -10.7837226468      -13.2172191718      -12.0245518996  MEMB      51              0.0000000000
      6742        51  POPC      C32           -12.3234833986      -15.1214572760      -12.0070872222  MEMB      51              0.0000000000
      6743        51  POPC      H2X           -13.2003023778      -14.6693540067      -12.5088737360  MEMB      51              0.0000000000
      6744        51  POPC      H2Y           -12.3681409680      -15.0191936637      -10.9102135683  MEMB      51              0.0000000000
      6745        51  POPC      C23            -7.7312011693      -17.8318876326      -13.1521199887  MEMB      51              0.0000000000
      6746        51  POPC      H3R            -8.7620117187      -17.8245749875      -13.5792859410  MEMB      51              0.0000000000
      6747        51  POPC      H3S            -7.6699136784      -17.1258554833      -12.2831552921  MEMB      51              0.0000000000
      6748        51  POPC      C24            -7.2062606477      -19.2203344310      -12.9681863356  MEMB      51              0.0000000000
      6749        51  POPC      H4R            -6.1355492594      -19.1703768348      -12.6350362772  MEMB      51              0.0000000000
      6750        51  POPC      H4S            -7.1955811084      -19.7354057009      -13.9610761362  MEMB      51              0.0000000000
      6751        51  POPC      C25            -8.1146142350      -19.8631760397      -11.9902094099  MEMB      51              0.0000000000
      6752        51  POPC      H5R            -7.7763876906      -20.8768759763      -11.8096084197  MEMB      51              0.0000000000
      6753        51  POPC      H5S            -9.1414619290      -19.9528265052      -12.3925150729  MEMB      51              0.0000000000
      6754        51  POPC      C26            -8.1230089986      -19.0277300847      -10.7240241925  MEMB      51              0.0000000000
      6755        51  POPC      H6R            -8.6917012033      -18.0839605702      -10.8337942240  MEMB      51              0.0000000000
      6756        51  POPC      H6S            -7.0682978423      -18.7177437805      -10.5388343141  MEMB      51              0.0000000000
      6757        51  POPC      C27            -8.7835812514      -19.7856277708       -9.5966662409  MEMB      51              0.0000000000
      6758        51  POPC      H7R            -8.4135475033      -20.8434034344       -9.6085066886  MEMB      51              0.0000000000
      6759        51  POPC      H7S            -9.8814832243      -19.7741062346       -9.6568538466  MEMB      51              0.0000000000
      6760        51  POPC      C28            -8.4155511220      -19.2198726841       -8.2614217352  MEMB      51              0.0000000000
      6761        51  POPC      H8R            -7.3550049493      -19.2091803901       -8.3757165610  MEMB      51              0.0000000000
      6762        51  POPC      H8S            -8.7110496638      -19.9499628588       -7.4775577445  MEMB      51              0.0000000000
      6763        51  POPC      C29            -8.5865879641      -17.9105056437       -7.6384076362  MEMB      51              0.0000000000
      6764        51  POPC      H91            -9.6120559333      -17.5347521876       -7.6209388020  MEMB      51              0.0000000000
      6765        51  POPC      C210           -7.5874479929      -17.1496156894       -7.1680230582  MEMB      51              0.0000000000
      6766        51  POPC      H101           -8.0661512512      -16.2630653777       -6.7484512660  MEMB      51              0.0000000000
      6767        51  POPC      C211           -6.0109865426      -17.2930033652       -7.0265864525  MEMB      51              0.0000000000
      6768        51  POPC      H11R           -5.3632924416      -16.3781788561       -7.0497222444  MEMB      51              0.0000000000
      6769        51  POPC      H11S           -5.5595452925      -17.7225973580       -7.9397929778  MEMB      51              0.0000000000
      6770        51  POPC      C212           -5.1806106248      -17.4828835339       -5.7655580675  MEMB      51              0.0000000000
      6771        51  POPC      H12R           -4.0991864011      -17.4500936531       -5.9577527844  MEMB      51              0.0000000000
      6772        51  POPC      H12S           -5.3617858629      -18.5067403818       -5.6820687061  MEMB      51              0.0000000000
      6773        51  POPC      C213           -5.5302187338      -16.7066832095       -4.5188760378  MEMB      51              0.0000000000
      6774        51  POPC      H13R           -5.5700771137      -15.5949391145       -4.5398346047  MEMB      51              0.0000000000
      6775        51  POPC      H13S           -4.8009956620      -16.8949769054       -3.7252499148  MEMB      51              0.0000000000
      6776        51  POPC      C214           -6.8021351396      -17.1940542164       -3.9818891842  MEMB      51              0.0000000000
      6777        51  POPC      H14R           -6.9333634030      -18.2615802630       -3.9032420705  MEMB      51              0.0000000000
      6778        51  POPC      H14S           -7.6242853432      -17.0082848924       -4.6945682029  MEMB      51              0.0000000000
      6779        51  POPC      C215           -6.8850017927      -16.5732092678       -2.6101739967  MEMB      51              0.0000000000
      6780        51  POPC      H15R           -7.9439205821      -16.3295503293       -2.4430729067  MEMB      51              0.0000000000
      6781        51  POPC      H15S           -6.4680371601      -15.6281015063       -2.5403011724  MEMB      51              0.0000000000
      6782        51  POPC      C216           -5.9624335478      -16.9293492143       -1.4412770086  MEMB      51              0.0000000000
      6783        51  POPC      H16R           -5.0210584849      -16.3463280880       -1.6374469383  MEMB      51              0.0000000000
      6784        51  POPC      H16S           -5.7219769755      -17.9929045708       -1.4868599402  MEMB      51              0.0000000000
      6785        51  POPC      C217           -6.5160166270      -16.4774989365       -0.0678019884  MEMB      51              0.0000000000
      6786        51  POPC      H17R           -7.5554236923      -16.7574726566        0.1752298852  MEMB      51              0.0000000000
      6787        51  POPC      H17S           -6.5027521807      -15.3811582695       -0.0876829819  MEMB      51              0.0000000000
      6788        51  POPC      C218           -5.6403051912      -16.8206566633        1.1048435098  MEMB      51              0.0000000000
      6789        51  POPC      H18R           -5.5478720194      -17.9097956642        1.2911690920  MEMB      51              0.0000000000
      6790        51  POPC      H18S           -5.9428471023      -16.3185953471        2.0463192972  MEMB      51              0.0000000000
      6791        51  POPC      H18T           -4.6817492340      -16.3872386752        0.7780987862  MEMB      51              0.0000000000
      6792        51  POPC      C33           -12.3118027372      -16.5750499132      -12.5319637382  MEMB      51              0.0000000000
      6793        51  POPC      H3X           -11.3360723351      -17.0551358687      -12.3192604349  MEMB      51              0.0000000000
      6794        51  POPC      H3Y           -12.4108095875      -16.4995159401      -13.6490193031  MEMB      51              0.0000000000
      6795        51  POPC      C34           -13.4591692908      -17.5004687134      -12.0715878472  MEMB      51              0.0000000000
      6796        51  POPC      H4X           -13.2571996530      -18.4797363131      -12.5648688114  MEMB      51              0.0000000000
      6797        51  POPC      H4Y           -14.4083602091      -17.1149141814      -12.5120598195  MEMB      51              0.0000000000
      6798        51  POPC      C35           -13.6420005531      -17.7078034870      -10.5461088226  MEMB      51              0.0000000000
      6799        51  POPC      H5X           -14.6914776266      -18.0380096667      -10.3610981823  MEMB      51              0.0000000000
      6800        51  POPC      H5Y           -13.5020847518      -16.7400794536      -10.0228299363  MEMB      51              0.0000000000
      6801        51  POPC      C36           -12.7177213797      -18.7845427779       -9.9356006910  MEMB      51              0.0000000000
      6802        51  POPC      H6X           -11.6655544673      -18.4785426563      -10.1206511771  MEMB      51              0.0000000000
      6803        51  POPC      H6Y           -12.8911098545      -19.7312450666      -10.4973441860  MEMB      51              0.0000000000
      6804        51  POPC      C37           -12.8750450513      -19.0788102296       -8.4150123407  MEMB      51              0.0000000000
      6805        51  POPC      H7X           -12.1549571410      -19.8917936567       -8.1678680179  MEMB      51              0.0000000000
      6806        51  POPC      H7Y           -13.8901441868      -19.4762587371       -8.1924092727  MEMB      51              0.0000000000
      6807        51  POPC      C38           -12.5719958937      -17.8624975577       -7.5086773653  MEMB      51              0.0000000000
      6808        51  POPC      H8X           -13.4153921554      -17.1453124486       -7.6145995456  MEMB      51              0.0000000000
      6809        51  POPC      H8Y           -11.6647407472      -17.3653978653       -7.9115391621  MEMB      51              0.0000000000
      6810        51  POPC      C39           -12.3445053021      -18.1453629763       -6.0000940818  MEMB      51              0.0000000000
      6811        51  POPC      H9X           -11.3184429307      -18.5385275199       -5.8202444333  MEMB      51              0.0000000000
      6812        51  POPC      H9Y           -13.0693108385      -18.9079251019       -5.6497090441  MEMB      51              0.0000000000
      6813        51  POPC      C310          -12.4919925215      -16.8787717654       -5.1385400134  MEMB      51              0.0000000000
      6814        51  POPC      H10X          -13.5297769130      -16.4859689697       -5.2068591160  MEMB      51              0.0000000000
      6815        51  POPC      H10Y          -11.8300997571      -16.1193575478       -5.6119719436  MEMB      51              0.0000000000
      6816        51  POPC      C311          -12.1330894808      -17.0464705990       -3.6415223208  MEMB      51              0.0000000000
      6817        51  POPC      H11X          -11.0518303493      -17.3083609643       -3.5568357935  MEMB      51              0.0000000000
      6818        51  POPC      H11Y          -12.7186490222      -17.8651488381       -3.1779479312  MEMB      51              0.0000000000
      6819        51  POPC      C312          -12.3924593636      -15.7524587364       -2.8595325170  MEMB      51              0.0000000000
      6820        51  POPC      H12X          -12.0135263547      -15.8249471349       -1.8101090777  MEMB      51              0.0000000000
      6821        51  POPC      H12Y          -13.4754130036      -15.5143806326       -2.8098157168  MEMB      51              0.0000000000
      6822        51  POPC      C313          -11.7333629235      -14.6169923269       -3.6188768361  MEMB      51              0.0000000000
      6823        51  POPC      H13X          -12.3942739687      -14.0827873954       -4.3201360621  MEMB      51              0.0000000000
      6824        51  POPC      H13Y          -10.9522827399      -15.0656230760       -4.2458081429  MEMB      51              0.0000000000
      6825        51  POPC      C314          -11.1444735050      -13.5892951357       -2.7293581612  MEMB      51              0.0000000000
      6826        51  POPC      H14X          -10.3012577020      -13.0448287352       -3.1839016407  MEMB      51              0.0000000000
      6827        51  POPC      H14Y          -10.7589426399      -14.0967539575       -1.8165920256  MEMB      51              0.0000000000
      6828        51  POPC      C315          -12.1386413220      -12.5366405380       -2.5617870136  MEMB      51              0.0000000000
      6829        51  POPC      H15X          -13.1784603115      -12.9180098744       -2.6414534759  MEMB      51              0.0000000000
      6830        51  POPC      H15Y          -11.9568771070      -11.6795175880       -3.2570041899  MEMB      51              0.0000000000
      6831        51  POPC      C316          -11.8931911481      -12.2058702846       -1.1828917456  MEMB      51              0.0000000000
      6832        51  POPC      H16X          -11.0553729377      -11.4912451840       -1.0764086920  MEMB      51              0.0000000000
      6833        51  POPC      H16Y          -11.8446819755      -13.0248499975       -0.5117495768  MEMB      51              0.0000000000
      6834        51  POPC      H16Z          -12.8308552262      -11.9588625860       -0.7492037064  MEMB      51              0.0000000000
      6835        52  POPC      N              13.3361728979      -13.9868260299      -19.2616616809  MEMB      52              0.0000000000
      6836        52  POPC      C12            12.5021330959      -14.8374935870      -18.2889820677  MEMB      52              0.0000000000
      6837        52  POPC      H12A           12.0344069510      -14.2869906315      -17.4816515209  MEMB      52              0.0000000000
      6838        52  POPC      H12B           13.1940280178      -15.4769094333      -17.7401372766  MEMB      52              0.0000000000
      6839        52  POPC      C13            14.4552283659      -13.3549046806      -18.5554334383  MEMB      52              0.0000000000
      6840        52  POPC      H13A           14.7061183203      -13.7089348221      -17.5610820414  MEMB      52              0.0000000000
      6841        52  POPC      H13B           15.2528813710      -12.8811511834      -19.1181895121  MEMB      52              0.0000000000
      6842        52  POPC      H13C           13.9346878471      -12.4574942419      -18.2175662366  MEMB      52              0.0000000000
      6843        52  POPC      C14            14.0604371975      -14.8348711207      -20.2243155845  MEMB      52              0.0000000000
      6844        52  POPC      H14A           14.3492608784      -14.2743440874      -21.0940729061  MEMB      52              0.0000000000
      6845        52  POPC      H14B           14.9387057263      -15.2045238163      -19.7001904962  MEMB      52              0.0000000000
      6846        52  POPC      H14C           13.4119088826      -15.6608304395      -20.4857844845  MEMB      52              0.0000000000
      6847        52  POPC      C15            12.4655731038      -12.9893464910      -19.9816800974  MEMB      52              0.0000000000
      6848        52  POPC      H15A           11.6992056353      -13.5314182838      -20.5255766854  MEMB      52              0.0000000000
      6849        52  POPC      H15B           13.0100605629      -12.3682681886      -20.6918958483  MEMB      52              0.0000000000
      6850        52  POPC      H15C           11.9348002288      -12.3132206987      -19.3205998902  MEMB      52              0.0000000000
      6851        52  POPC      C11            11.3525766693      -15.6991098183      -18.7797422769  MEMB      52              0.0000000000
      6852        52  POPC      H11A           10.5261320148      -15.0937859967      -19.2013530848  MEMB      52              0.0000000000
      6853        52  POPC      H11B           10.9206558263      -16.1709538325      -17.8416294529  MEMB      52              0.0000000000
      6854        52  POPC      P              12.5580699290      -17.8516216736      -19.0908771760  MEMB      52              0.0000000000
      6855        52  POPC      O13            13.3561199284      -18.5581964997      -20.1128492916  MEMB      52              0.0000000000
      6856        52  POPC      O14            11.4403484794      -18.5356659233      -18.4539231164  MEMB      52              0.0000000000
      6857        52  POPC      O12            11.8837519081      -16.6069633648      -19.7536084594  MEMB      52              0.0000000000
      6858        52  POPC      O11            13.4356486139      -17.2181350837      -17.9604380241  MEMB      52              0.0000000000
      6859        52  POPC      C1             14.8543700892      -17.3377495148      -18.0094830910  MEMB      52              0.0000000000
      6860        52  POPC      HA             15.2816321921      -16.5229049635      -18.5764822494  MEMB      52              0.0000000000
      6861        52  POPC      HB             15.1771772992      -18.3437961035      -18.3928746438  MEMB      52              0.0000000000
      6862        52  POPC      C2             15.4166010412      -17.3161615828      -16.6477683058  MEMB      52              0.0000000000
      6863        52  POPC      HS             16.5058607383      -17.4538539890      -16.4897054116  MEMB      52              0.0000000000
      6864        52  POPC      O21            14.8070790138      -18.4960673129      -16.2994817834  MEMB      52              0.0000000000
      6865        52  POPC      C21            14.0019478465      -19.8796897333      -16.5825047976  MEMB      52              0.0000000000
      6866        52  POPC      O22            14.7794658953      -20.5188045073      -17.2660670673  MEMB      52              0.0000000000
      6867        52  POPC      C22            12.6223487245      -20.5459266813      -15.0034875716  MEMB      52              0.0000000000
      6868        52  POPC      H2R            11.9348141214      -21.0538642765      -15.5303386607  MEMB      52              0.0000000000
      6869        52  POPC      H2S            12.2178932568      -19.9924516500      -14.2172932790  MEMB      52              0.0000000000
      6870        52  POPC      C3             15.0610805048      -15.9406333390      -15.7981875280  MEMB      52              0.0000000000
      6871        52  POPC      HX             14.4958605014      -15.2395375102      -16.4303877864  MEMB      52              0.0000000000
      6872        52  POPC      HY             16.0771745132      -15.5333395452      -15.8063610881  MEMB      52              0.0000000000
      6873        52  POPC      O31            14.6750629439      -15.8267127128      -14.3797233042  MEMB      52              0.0000000000
      6874        52  POPC      C31            13.4536077917      -15.2287324024      -14.1523393165  MEMB      52              0.0000000000
      6875        52  POPC      O32            12.6597011993      -14.9986037496      -15.0461565174  MEMB      52              0.0000000000
      6876        52  POPC      C32            13.1609953466      -15.2560223451      -12.6549411982  MEMB      52              0.0000000000
      6877        52  POPC      H2X            14.0044277734      -14.7311163691      -12.1667722470  MEMB      52              0.0000000000
      6878        52  POPC      H2Y            13.1678975744      -16.3142067557      -12.3120493292  MEMB      52              0.0000000000
      6879        52  POPC      C23            12.9285531095      -20.5861081737      -13.0013387646  MEMB      52              0.0000000000
      6880        52  POPC      H3R            13.9378702697      -20.9551031576      -12.8096654869  MEMB      52              0.0000000000
      6881        52  POPC      H3S            12.7921587602      -21.5566638473      -13.2396263176  MEMB      52              0.0000000000
      6882        52  POPC      C24            14.0785203283      -19.8303700767      -11.8532333582  MEMB      52              0.0000000000
      6883        52  POPC      H4R            13.5476047274      -19.0295186016      -11.3614253417  MEMB      52              0.0000000000
      6884        52  POPC      H4S            14.8764296191      -19.0965037811      -12.1518868834  MEMB      52              0.0000000000
      6885        52  POPC      C25            15.2831649188      -20.4908480121      -11.0809910098  MEMB      52              0.0000000000
      6886        52  POPC      H5R            16.0092954541      -20.7918044318      -11.8457376308  MEMB      52              0.0000000000
      6887        52  POPC      H5S            15.1975419881      -21.4948778325      -10.6772504962  MEMB      52              0.0000000000
      6888        52  POPC      C26            15.8331226755      -19.5076677232      -10.0271403372  MEMB      52              0.0000000000
      6889        52  POPC      H6R            15.9730986169      -18.4883555813      -10.4250122423  MEMB      52              0.0000000000
      6890        52  POPC      H6S            16.7646514516      -19.8831951807       -9.6710656238  MEMB      52              0.0000000000
      6891        52  POPC      C27            15.0171168453      -19.4806747176       -8.7696445446  MEMB      52              0.0000000000
      6892        52  POPC      H7R            15.1439567253      -20.4662138134       -8.2546042636  MEMB      52              0.0000000000
      6893        52  POPC      H7S            13.9896075435      -19.2940707576       -9.1180067148  MEMB      52              0.0000000000
      6894        52  POPC      C28            15.0649401433      -18.3529308857       -7.7983706317  MEMB      52              0.0000000000
      6895        52  POPC      H8R            16.0824300822      -18.3292897005       -7.3631954797  MEMB      52              0.0000000000
      6896        52  POPC      H8S            14.3125331736      -18.5678691075       -6.9921588417  MEMB      52              0.0000000000
      6897        52  POPC      C29            14.6653441382      -17.1207191713       -8.5527345696  MEMB      52              0.0000000000
      6898        52  POPC      H91            14.2136660077      -17.2160303960       -9.5551430637  MEMB      52              0.0000000000
      6899        52  POPC      C210           14.8059496608      -15.9530312238       -7.9971888888  MEMB      52              0.0000000000
      6900        52  POPC      H101           14.5167509529      -15.0787593430       -8.5894412330  MEMB      52              0.0000000000
      6901        52  POPC      C211           15.3671533492      -15.8755935569       -6.6016305771  MEMB      52              0.0000000000
      6902        52  POPC      H11R           16.4641954108      -15.7258299781       -6.6641055353  MEMB      52              0.0000000000
      6903        52  POPC      H11S           15.1356646248      -16.7595478145       -5.9699487865  MEMB      52              0.0000000000
      6904        52  POPC      C212           14.7589681965      -14.7676409134       -5.8026689892  MEMB      52              0.0000000000
      6905        52  POPC      H12R           15.1337250377      -13.9384845863       -6.3397528002  MEMB      52              0.0000000000
      6906        52  POPC      H12S           15.2023577250      -14.5256779126       -4.8246696427  MEMB      52              0.0000000000
      6907        52  POPC      C213           13.2493329925      -14.8055217010       -5.7270675676  MEMB      52              0.0000000000
      6908        52  POPC      H13R           12.9160002600      -15.5196939157       -4.9604495858  MEMB      52              0.0000000000
      6909        52  POPC      H13S           12.7340478726      -14.9334961225       -6.6978292109  MEMB      52              0.0000000000
      6910        52  POPC      C214           12.8760526627      -13.4836361561       -5.2330647593  MEMB      52              0.0000000000
      6911        52  POPC      H14R           13.0877031509      -12.7696360066       -6.0645081636  MEMB      52              0.0000000000
      6912        52  POPC      H14S           13.4153711194      -13.2888637954       -4.2986789269  MEMB      52              0.0000000000
      6913        52  POPC      C215           11.4811807436      -13.1573742578       -4.9975794535  MEMB      52              0.0000000000
      6914        52  POPC      H15R           11.1700126008      -13.1549791181       -6.0718888819  MEMB      52              0.0000000000
      6915        52  POPC      H15S           11.3304331837      -12.1266789517       -4.5837527272  MEMB      52              0.0000000000
      6916        52  POPC      C216           10.6579715057      -14.0507044691       -4.1113759878  MEMB      52              0.0000000000
      6917        52  POPC      H16R           11.0643528849      -15.0752528998       -4.1748465400  MEMB      52              0.0000000000
      6918        52  POPC      H16S            9.5962346354      -14.1448075886       -4.4361518132  MEMB      52              0.0000000000
      6919        52  POPC      C217           10.6064985723      -13.4256273657       -2.7258629629  MEMB      52              0.0000000000
      6920        52  POPC      H17R            9.9324401454      -12.5406199170       -2.6790770664  MEMB      52              0.0000000000
      6921        52  POPC      H17S           11.6176257916      -13.1168338896       -2.3975982687  MEMB      52              0.0000000000
      6922        52  POPC      C218           10.1847953267      -14.5111389301       -1.8161116975  MEMB      52              0.0000000000
      6923        52  POPC      H18R            9.1735417754      -14.8910176524       -2.0843403985  MEMB      52              0.0000000000
      6924        52  POPC      H18S           10.2911789234      -14.2768151147       -0.7351035559  MEMB      52              0.0000000000
      6925        52  POPC      H18T           10.8871832661      -15.2905402533       -2.0811978265  MEMB      52              0.0000000000
      6926        52  POPC      C33            11.7959671040      -14.6285171980      -12.2840894244  MEMB      52              0.0000000000
      6927        52  POPC      H3X            10.9666975628      -15.1550358643      -12.7994588421  MEMB      52              0.0000000000
      6928        52  POPC      H3Y            11.7273244154      -13.5685805016      -12.6139617008  MEMB      52              0.0000000000
      6929        52  POPC      C34            11.5823688807      -14.6525776848      -10.7706168754  MEMB      52              0.0000000000
      6930        52  POPC      H4X            10.9602650715      -13.7873031697      -10.4407478992  MEMB      52              0.0000000000
      6931        52  POPC      H4Y            12.5736712385      -14.6210477266      -10.2907749541  MEMB      52              0.0000000000
      6932        52  POPC      C35            10.9998773995      -15.9490489681      -10.2443626734  MEMB      52              0.0000000000
      6933        52  POPC      H5X            11.6519061764      -16.7716950989      -10.6183799959  MEMB      52              0.0000000000
      6934        52  POPC      H5Y             9.9826509192      -16.0462662850      -10.6747512744  MEMB      52              0.0000000000
      6935        52  POPC      C36            11.0060240813      -16.0207117061       -8.7114403744  MEMB      52              0.0000000000
      6936        52  POPC      H6X            10.2278675991      -15.3610955325       -8.2929383614  MEMB      52              0.0000000000
      6937        52  POPC      H6Y            11.9860150965      -15.6583168195       -8.3428022115  MEMB      52              0.0000000000
      6938        52  POPC      C37            10.8574779950      -17.4593601753       -8.2314995487  MEMB      52              0.0000000000
      6939        52  POPC      H7X            11.7971287438      -17.9825124640       -8.5205028776  MEMB      52              0.0000000000
      6940        52  POPC      H7Y            10.0013712456      -17.9457297641       -8.7487478825  MEMB      52              0.0000000000
      6941        52  POPC      C38            10.6594547952      -17.6760646140       -6.7294896358  MEMB      52              0.0000000000
      6942        52  POPC      H8X             9.5711754464      -17.5616630408       -6.5632718138  MEMB      52              0.0000000000
      6943        52  POPC      H8Y            11.1772563272      -16.9102116071       -6.1288734619  MEMB      52              0.0000000000
      6944        52  POPC      C39            11.2078332190      -19.0768298987       -6.4051575718  MEMB      52              0.0000000000
      6945        52  POPC      H9X            12.2819826318      -19.0603742160       -6.6534620290  MEMB      52              0.0000000000
      6946        52  POPC      H9Y            10.6461949576      -19.7694366187       -7.0798919227  MEMB      52              0.0000000000
      6947        52  POPC      C310           11.1823881116      -19.7518803238       -5.0355041767  MEMB      52              0.0000000000
      6948        52  POPC      H10X           10.3922407152      -20.4922271124       -5.0772450651  MEMB      52              0.0000000000
      6949        52  POPC      H10Y           11.4932453151      -20.7615549098       -4.7897820245  MEMB      52              0.0000000000
      6950        52  POPC      C311           12.3067351831      -19.5171580664       -4.1488468678  MEMB      52              0.0000000000
      6951        52  POPC      H11X           13.1849960882      -19.8577735971       -4.7502224073  MEMB      52              0.0000000000
      6952        52  POPC      H11Y           12.2911307116      -20.1571782173       -3.2270455511  MEMB      52              0.0000000000
      6953        52  POPC      C312           12.1842886906      -18.0675835830       -3.8332477386  MEMB      52              0.0000000000
      6954        52  POPC      H12X           11.1516953037      -18.0297432770       -3.5452486234  MEMB      52              0.0000000000
      6955        52  POPC      H12Y           12.3056534416      -17.3815612533       -4.6757073703  MEMB      52              0.0000000000
      6956        52  POPC      C313           13.1986360080      -17.6488432946       -2.8860375618  MEMB      52              0.0000000000
      6957        52  POPC      H13X           13.1652723715      -18.0067443571       -1.8276216298  MEMB      52              0.0000000000
      6958        52  POPC      H13Y           13.2930285546      -16.5421531922       -2.8470436101  MEMB      52              0.0000000000
      6959        52  POPC      C314           14.3090405760      -18.3575152317       -3.5310417623  MEMB      52              0.0000000000
      6960        52  POPC      H14X           14.4747919951      -18.2361407508       -4.6121117705  MEMB      52              0.0000000000
      6961        52  POPC      H14Y           14.4003430625      -19.4541382865       -3.1882607517  MEMB      52              0.0000000000
      6962        52  POPC      C315           15.3607284994      -17.7283994934       -2.9744870291  MEMB      52              0.0000000000
      6963        52  POPC      H15X           16.1911545159      -18.3575178037       -3.3191477316  MEMB      52              0.0000000000
      6964        52  POPC      H15Y           15.0163409999      -18.1627803490       -1.9750744769  MEMB      52              0.0000000000
      6965        52  POPC      C316           15.7440467908      -16.2136380516       -3.0658062499  MEMB      52              0.0000000000
      6966        52  POPC      H16X           16.0730860573      -16.0075242041       -4.0742734608  MEMB      52              0.0000000000
      6967        52  POPC      H16Y           16.6587713760      -15.9189782602       -2.5014368370  MEMB      52              0.0000000000
      6968        52  POPC      H16Z           15.0341075712      -15.5086667691       -2.6007092001  MEMB      52              0.0000000000
      6969        53  POPC      N             -13.6052842732       14.0016220761      -20.5459969095  MEMB      53              0.0000000000
      6970        53  POPC      C12           -14.1069050999       14.8772341396      -19.3918075594  MEMB      53              0.0000000000
      6971        53  POPC      H12A          -13.6927185980       15.8722049006      -19.4885091864  MEMB      53              0.0000000000
      6972        53  POPC      H12B          -13.7495293968       14.4969466265      -18.4314817984  MEMB      53              0.0000000000
      6973        53  POPC      C13           -12.1073836443       14.0367448992      -20.6108536766  MEMB      53              0.0000000000
      6974        53  POPC      H13A          -11.7115351049       15.0491655725      -20.5513630216  MEMB      53              0.0000000000
      6975        53  POPC      H13B          -11.6213221861       13.5155004536      -19.7917764588  MEMB      53              0.0000000000
      6976        53  POPC      H13C          -11.7514829044       13.6138506299      -21.5415983367  MEMB      53              0.0000000000
      6977        53  POPC      C14           -14.0837857528       12.5721939853      -20.4790500881  MEMB      53              0.0000000000
      6978        53  POPC      H14A          -13.5924720886       11.9999562461      -19.7053845806  MEMB      53              0.0000000000
      6979        53  POPC      H14B          -15.1552104702       12.5334106557      -20.2446639924  MEMB      53              0.0000000000
      6980        53  POPC      H14C          -13.9178163523       12.0938868983      -21.4346966882  MEMB      53              0.0000000000
      6981        53  POPC      C15           -14.1668155937       14.5701376324      -21.8154983247  MEMB      53              0.0000000000
      6982        53  POPC      H15A          -15.2127924233       14.8315393893      -21.6329420127  MEMB      53              0.0000000000
      6983        53  POPC      H15B          -14.1283856266       13.8459058933      -22.6151077689  MEMB      53              0.0000000000
      6984        53  POPC      H15C          -13.6365082786       15.4597061826      -22.1313117437  MEMB      53              0.0000000000
      6985        53  POPC      C11           -15.6387610513       15.0592165794      -19.2403690128  MEMB      53              0.0000000000
      6986        53  POPC      H11A          -16.1035749506       15.4136411416      -20.1802652043  MEMB      53              0.0000000000
      6987        53  POPC      H11B          -15.8478665662       15.8719195474      -18.4954044277  MEMB      53              0.0000000000
      6988        53  POPC      P             -16.1379232696       13.3639180872      -17.3777968483  MEMB      53              0.0000000000
      6989        53  POPC      O13           -14.7372591515       13.5644873091      -16.9320414107  MEMB      53              0.0000000000
      6990        53  POPC      O14           -16.7096330248       12.0092868271      -17.2398948781  MEMB      53              0.0000000000
      6991        53  POPC      O12           -16.2492833662       13.8196280067      -18.8890875387  MEMB      53              0.0000000000
      6992        53  POPC      O11           -17.0810304301       14.3868351985      -16.6323132669  MEMB      53              0.0000000000
      6993        53  POPC      C1            -18.3542134643       14.5981476426      -17.2540657485  MEMB      53              0.0000000000
      6994        53  POPC      HA            -18.8608684630       13.6281320734      -17.5067456616  MEMB      53              0.0000000000
      6995        53  POPC      HB            -18.2583334349       15.1772885997      -18.1953013390  MEMB      53              0.0000000000
      6996        53  POPC      C2            -19.3011246075       15.2900090033      -16.2683546897  MEMB      53              0.0000000000
      6997        53  POPC      HS            -20.1768814559       15.7058741659      -16.8218566017  MEMB      53              0.0000000000
      6998        53  POPC      O21           -18.7041370389       16.3565081813      -15.4688196376  MEMB      53              0.0000000000
      6999        53  POPC      C21           -18.1673880522       17.3542518424      -16.1584560135  MEMB      53              0.0000000000
      7000        53  POPC      O22           -18.2762706297       17.5407904611      -17.3537330001  MEMB      53              0.0000000000
      7001        53  POPC      C22           -17.3016853214       18.2619686965      -15.2854852234  MEMB      53              0.0000000000
      7002        53  POPC      H2R           -17.8231084589       18.6550220865      -14.3934528330  MEMB      53              0.0000000000
      7003        53  POPC      H2S           -17.0222778618       19.1230705843      -15.9345816777  MEMB      53              0.0000000000
      7004        53  POPC      C3            -19.8252141599       14.1195045719      -15.3758600300  MEMB      53              0.0000000000
      7005        53  POPC      HX            -20.2020402341       13.3208263990      -16.0527011417  MEMB      53              0.0000000000
      7006        53  POPC      HY            -20.7450996185       14.2784443615      -14.8546234998  MEMB      53              0.0000000000
      7007        53  POPC      O31           -18.8555166450       13.7259313867      -14.3835274217  MEMB      53              0.0000000000
      7008        53  POPC      C31           -18.9555998749       12.4689850211      -14.0286659703  MEMB      53              0.0000000000
      7009        53  POPC      O32           -19.7540385311       11.6601396485      -14.4718043273  MEMB      53              0.0000000000
      7010        53  POPC      C32           -18.0033704949       12.1939217081      -12.8589247564  MEMB      53              0.0000000000
      7011        53  POPC      H2X           -16.9759499219       12.2600791382      -13.2649206306  MEMB      53              0.0000000000
      7012        53  POPC      H2Y           -18.2493737348       11.1729365800      -12.5133778319  MEMB      53              0.0000000000
      7013        53  POPC      C23           -15.9996428572       17.5449567029      -14.9104526445  MEMB      53              0.0000000000
      7014        53  POPC      H3R           -15.1613034928       18.2858098330      -14.9760448636  MEMB      53              0.0000000000
      7015        53  POPC      H3S           -15.7661791202       16.7204717084      -15.6242259854  MEMB      53              0.0000000000
      7016        53  POPC      C24           -16.0617071064       16.9488395122      -13.5154177147  MEMB      53              0.0000000000
      7017        53  POPC      H4R           -16.9528246101       16.3162909861      -13.3494595971  MEMB      53              0.0000000000
      7018        53  POPC      H4S           -16.0967789581       17.7975177134      -12.7825004721  MEMB      53              0.0000000000
      7019        53  POPC      C25           -14.8299019747       16.1055748610      -13.2519273574  MEMB      53              0.0000000000
      7020        53  POPC      H5R           -14.7136269532       16.2737669648      -12.1730699346  MEMB      53              0.0000000000
      7021        53  POPC      H5S           -13.9619486985       16.5093534837      -13.8224000090  MEMB      53              0.0000000000
      7022        53  POPC      C26           -14.8408208451       14.5856954014      -13.3687450398  MEMB      53              0.0000000000
      7023        53  POPC      H6R           -14.5494434373       14.3064107929      -14.4022876228  MEMB      53              0.0000000000
      7024        53  POPC      H6S           -15.8640589130       14.2257219000      -13.1519934103  MEMB      53              0.0000000000
      7025        53  POPC      C27           -13.8776451433       13.9358107725      -12.3590033981  MEMB      53              0.0000000000
      7026        53  POPC      H7R           -14.1732181434       14.3079416640      -11.3475819933  MEMB      53              0.0000000000
      7027        53  POPC      H7S           -12.8268871093       14.2481788369      -12.5618942227  MEMB      53              0.0000000000
      7028        53  POPC      C28           -13.9321337745       12.4131929754      -12.3078458820  MEMB      53              0.0000000000
      7029        53  POPC      H8R           -13.5471444879       11.9531161479      -13.2411274185  MEMB      53              0.0000000000
      7030        53  POPC      H8S           -15.0014136710       12.1331662822      -12.2012251284  MEMB      53              0.0000000000
      7031        53  POPC      C29           -13.1388602484       11.9483629390      -11.1254620331  MEMB      53              0.0000000000
      7032        53  POPC      H91           -12.0810476142       11.6782362602      -11.3027916493  MEMB      53              0.0000000000
      7033        53  POPC      C210          -13.6826402955       11.7739764425       -9.9147689920  MEMB      53              0.0000000000
      7034        53  POPC      H101          -13.0422846371       11.3394744967       -9.1363234105  MEMB      53              0.0000000000
      7035        53  POPC      C211          -15.1396977628       12.0074261863       -9.5469296811  MEMB      53              0.0000000000
      7036        53  POPC      H11R          -15.8236341455       11.3977712450      -10.1915957539  MEMB      53              0.0000000000
      7037        53  POPC      H11S          -15.3794994533       13.0759417904       -9.6653068997  MEMB      53              0.0000000000
      7038        53  POPC      C212          -15.4643494731       11.6353940752       -8.0961858899  MEMB      53              0.0000000000
      7039        53  POPC      H12R          -14.5933543236       11.7538416876       -7.4112371517  MEMB      53              0.0000000000
      7040        53  POPC      H12S          -15.8754288235       10.6091760290       -8.1652690337  MEMB      53              0.0000000000
      7041        53  POPC      C213          -16.6876694936       12.0787264937       -7.3931903845  MEMB      53              0.0000000000
      7042        53  POPC      H13R          -17.5892443853       11.5587363293       -7.8022181541  MEMB      53              0.0000000000
      7043        53  POPC      H13S          -16.7692678464       13.1497696983       -7.5655453124  MEMB      53              0.0000000000
      7044        53  POPC      C214          -16.6338668506       11.6951351714       -5.9286279239  MEMB      53              0.0000000000
      7045        53  POPC      H14R          -15.7628926293       12.1212176928       -5.3763555449  MEMB      53              0.0000000000
      7046        53  POPC      H14S          -16.5173998533       10.5914060350       -5.8434159811  MEMB      53              0.0000000000
      7047        53  POPC      C215          -17.9821128889       12.1762358408       -5.4224381496  MEMB      53              0.0000000000
      7048        53  POPC      H15R          -18.7974315474       11.5651533118       -5.8712882428  MEMB      53              0.0000000000
      7049        53  POPC      H15S          -18.1288286958       13.2589428158       -5.5586418996  MEMB      53              0.0000000000
      7050        53  POPC      C216          -18.1465476865       11.9410976900       -4.0200110114  MEMB      53              0.0000000000
      7051        53  POPC      H16R          -19.0593698723       12.3642007496       -3.5350985120  MEMB      53              0.0000000000
      7052        53  POPC      H16S          -17.2980579958       12.4717597630       -3.4918995663  MEMB      53              0.0000000000
      7053        53  POPC      C217          -18.1545383170       10.4079585656       -3.8997849304  MEMB      53              0.0000000000
      7054        53  POPC      H17R          -17.1088019889       10.0082121785       -4.0268340814  MEMB      53              0.0000000000
      7055        53  POPC      H17S          -18.8730278451        9.6653686037       -4.2762800435  MEMB      53              0.0000000000
      7056        53  POPC      C218          -18.5859469712       10.3275274365       -2.5540034636  MEMB      53              0.0000000000
      7057        53  POPC      H18R          -18.3674921297        9.3699139834       -2.0544904145  MEMB      53              0.0000000000
      7058        53  POPC      H18S          -19.3986614309       10.9080184472       -2.1013334484  MEMB      53              0.0000000000
      7059        53  POPC      H18T          -17.7256556528       10.9922082994       -2.3686429419  MEMB      53              0.0000000000
      7060        53  POPC      C33           -18.0344229560       13.1575425824      -11.6516400908  MEMB      53              0.0000000000
      7061        53  POPC      H3X           -17.9797097176       14.2122628557      -12.0066655298  MEMB      53              0.0000000000
      7062        53  POPC      H3Y           -17.1466266957       13.0258185505      -11.0127435406  MEMB      53              0.0000000000
      7063        53  POPC      C34           -19.1816185138       12.9050590534      -10.7015402207  MEMB      53              0.0000000000
      7064        53  POPC      H4X           -19.4237382401       11.8709758412      -10.3957509714  MEMB      53              0.0000000000
      7065        53  POPC      H4Y           -20.0457902660       12.9868488514      -11.3889418339  MEMB      53              0.0000000000
      7066        53  POPC      C35           -19.0351157177       13.8605747926       -9.4441646973  MEMB      53              0.0000000000
      7067        53  POPC      H5X           -18.3204088975       13.4099085060       -8.7653119521  MEMB      53              0.0000000000
      7068        53  POPC      H5Y           -19.9540473529       13.8277112608       -8.8379145567  MEMB      53              0.0000000000
      7069        53  POPC      C36           -18.8466027425       15.4238952567       -9.6135100588  MEMB      53              0.0000000000
      7070        53  POPC      H6X           -19.4284434361       15.9696892577      -10.3711895928  MEMB      53              0.0000000000
      7071        53  POPC      H6Y           -17.8521751762       15.6619659422      -10.0055317750  MEMB      53              0.0000000000
      7072        53  POPC      C37           -19.2666463427       16.2096736325       -8.3536526066  MEMB      53              0.0000000000
      7073        53  POPC      H7X           -20.3309210512       16.0239751700       -8.0649909966  MEMB      53              0.0000000000
      7074        53  POPC      H7Y           -19.1756128080       17.3035222818       -8.5538488395  MEMB      53              0.0000000000
      7075        53  POPC      C38           -18.4279295247       15.8304020164       -7.1674768620  MEMB      53              0.0000000000
      7076        53  POPC      H8X           -18.6965672229       14.8017343338       -6.8408487076  MEMB      53              0.0000000000
      7077        53  POPC      H8Y           -18.5773885585       16.5195028970       -6.3037224338  MEMB      53              0.0000000000
      7078        53  POPC      C39           -16.9624560972       15.8123676485       -7.5176341676  MEMB      53              0.0000000000
      7079        53  POPC      H9X           -16.6615328284       16.8474454605       -7.8082587586  MEMB      53              0.0000000000
      7080        53  POPC      H9Y           -16.7172288238       15.1691112863       -8.3926276147  MEMB      53              0.0000000000
      7081        53  POPC      C310          -16.3020742862       15.2610591000       -6.2542550319  MEMB      53              0.0000000000
      7082        53  POPC      H10X          -16.5028545360       14.2222647091       -6.0229608796  MEMB      53              0.0000000000
      7083        53  POPC      H10Y          -16.5642211843       15.9125737981       -5.4010594128  MEMB      53              0.0000000000
      7084        53  POPC      C311          -14.8446309035       15.1473586385       -6.3558539415  MEMB      53              0.0000000000
      7085        53  POPC      H11X          -14.8415259026       16.1734159093       -6.7459384961  MEMB      53              0.0000000000
      7086        53  POPC      H11Y          -14.5042102174       14.5003008420       -7.1786062340  MEMB      53              0.0000000000
      7087        53  POPC      C312          -14.0347066482       14.8236869652       -5.0568273832  MEMB      53              0.0000000000
      7088        53  POPC      H12X          -12.9769178461       14.9639325131       -5.3823487300  MEMB      53              0.0000000000
      7089        53  POPC      H12Y          -14.1201228061       13.7428289941       -4.9117198934  MEMB      53              0.0000000000
      7090        53  POPC      C313          -14.3439876359       15.5551932807       -3.6843155616  MEMB      53              0.0000000000
      7091        53  POPC      H13X          -15.3982882958       15.7928378610       -3.5084543746  MEMB      53              0.0000000000
      7092        53  POPC      H13Y          -14.0163678513       16.5739916868       -3.4856770204  MEMB      53              0.0000000000
      7093        53  POPC      C314          -13.4527846738       15.1967455682       -2.5179210246  MEMB      53              0.0000000000
      7094        53  POPC      H14X          -12.3915324326       15.1586466906       -2.8626952262  MEMB      53              0.0000000000
      7095        53  POPC      H14Y          -13.8588244645       14.1950868940       -2.2921491392  MEMB      53              0.0000000000
      7096        53  POPC      C315          -13.5950122545       16.2379873445       -1.3799306150  MEMB      53              0.0000000000
      7097        53  POPC      H15X          -13.6439536554       17.3131551825       -1.6966256634  MEMB      53              0.0000000000
      7098        53  POPC      H15Y          -12.6985323215       16.2004168764       -0.7244723332  MEMB      53              0.0000000000
      7099        53  POPC      C316          -14.8727480496       15.9151961935       -0.6283578759  MEMB      53              0.0000000000
      7100        53  POPC      H16X          -14.6554259306       15.0614692084        0.0461101244  MEMB      53              0.0000000000
      7101        53  POPC      H16Y          -15.6938055398       15.6287908443       -1.3206923139  MEMB      53              0.0000000000
      7102        53  POPC      H16Z          -15.2419576507       16.7831239745       -0.0654018527  MEMB      53              0.0000000000
      7103        54  POPC      N             -16.7803835923      -10.6950359795      -20.8896780115  MEMB      54              0.0000000000
      7104        54  POPC      C12           -16.5427045543      -11.7632155384      -19.8176568328  MEMB      54              0.0000000000
      7105        54  POPC      H12A          -15.4815761564      -11.8261335690      -19.6036737223  MEMB      54              0.0000000000
      7106        54  POPC      H12B          -16.8405094223      -12.7178057520      -20.2205972852  MEMB      54              0.0000000000
      7107        54  POPC      C13           -18.2467533457      -10.5686289892      -21.2079324418  MEMB      54              0.0000000000
      7108        54  POPC      H13A          -18.4637612837       -9.8453124797      -21.9863001030  MEMB      54              0.0000000000
      7109        54  POPC      H13B          -18.6916366185      -11.5139153095      -21.4880977802  MEMB      54              0.0000000000
      7110        54  POPC      H13C          -18.7760742561      -10.2886082209      -20.2903584159  MEMB      54              0.0000000000
      7111        54  POPC      C14           -16.2855576972       -9.3548601342      -20.4210059679  MEMB      54              0.0000000000
      7112        54  POPC      H14A          -16.8715506686       -9.0114866909      -19.5636593066  MEMB      54              0.0000000000
      7113        54  POPC      H14B          -15.2487285530       -9.3863158794      -20.1246188790  MEMB      54              0.0000000000
      7114        54  POPC      H14C          -16.3860047092       -8.5990963400      -21.1889377730  MEMB      54              0.0000000000
      7115        54  POPC      C15           -16.0845218408      -11.0908063423      -22.1422827115  MEMB      54              0.0000000000
      7116        54  POPC      H15A          -16.6984560364      -11.7784249373      -22.7117471478  MEMB      54              0.0000000000
      7117        54  POPC      H15B          -15.1282711749      -11.5397089203      -21.9352296075  MEMB      54              0.0000000000
      7118        54  POPC      H15C          -15.9457921574      -10.2147597099      -22.7675143574  MEMB      54              0.0000000000
      7119        54  POPC      C11           -17.2214966108      -11.6812854046      -18.4230295244  MEMB      54              0.0000000000
      7120        54  POPC      H11A          -16.6074367256      -11.0096594656      -17.7881177840  MEMB      54              0.0000000000
      7121        54  POPC      H11B          -17.1592531031      -12.6956651612      -17.9560846302  MEMB      54              0.0000000000
      7122        54  POPC      P             -19.3606627206      -10.5904781084      -17.2922265275  MEMB      54              0.0000000000
      7123        54  POPC      O13           -20.5134459589      -11.4182143136      -16.8819814696  MEMB      54              0.0000000000
      7124        54  POPC      O14           -19.6124537537       -9.1964999772      -17.6929118356  MEMB      54              0.0000000000
      7125        54  POPC      O12           -18.5812301477      -11.2778331304      -18.5007403321  MEMB      54              0.0000000000
      7126        54  POPC      O11           -18.2863930183      -10.5745515637      -16.1319725017  MEMB      54              0.0000000000
      7127        54  POPC      C1            -17.5777418123       -9.3583043249      -15.9000038515  MEMB      54              0.0000000000
      7128        54  POPC      HA            -18.1058321100       -8.7197832413      -15.1577192527  MEMB      54              0.0000000000
      7129        54  POPC      HB            -17.4127143417       -8.7513631256      -16.8234772243  MEMB      54              0.0000000000
      7130        54  POPC      C2            -16.1997603115       -9.6767290433      -15.3606350212  MEMB      54              0.0000000000
      7131        54  POPC      HS            -15.7085779048      -10.4266348408      -16.0200037583  MEMB      54              0.0000000000
      7132        54  POPC      O21           -16.3983101697      -10.1867232734      -14.0286345793  MEMB      54              0.0000000000
      7133        54  POPC      C21           -16.3533979145      -11.5129326315      -13.8653917575  MEMB      54              0.0000000000
      7134        54  POPC      O22           -16.0601894067      -12.3419335951      -14.7051710824  MEMB      54              0.0000000000
      7135        54  POPC      C22           -16.7146910019      -11.8261748641      -12.3951524159  MEMB      54              0.0000000000
      7136        54  POPC      H2R           -17.7917379170      -12.0845187001      -12.4414204379  MEMB      54              0.0000000000
      7137        54  POPC      H2S           -16.5855522432      -10.9026337124      -11.8007202985  MEMB      54              0.0000000000
      7138        54  POPC      C3            -15.3794094292       -8.3443210480      -15.4320724391  MEMB      54              0.0000000000
      7139        54  POPC      HX            -15.3795785464       -7.9741204802      -16.4828623255  MEMB      54              0.0000000000
      7140        54  POPC      HY            -14.3436729756       -8.5437831352      -15.2126341791  MEMB      54              0.0000000000
      7141        54  POPC      O31           -15.9468590803       -7.3593994985      -14.5710112944  MEMB      54              0.0000000000
      7142        54  POPC      C31           -15.3464106243       -6.8868634377      -13.4856970089  MEMB      54              0.0000000000
      7143        54  POPC      O32           -14.1631159419       -6.8120961401      -13.2669100391  MEMB      54              0.0000000000
      7144        54  POPC      C32           -16.3492559542       -6.3447731462      -12.5038088369  MEMB      54              0.0000000000
      7145        54  POPC      H2X           -16.4694215574       -5.2747134936      -12.7839395403  MEMB      54              0.0000000000
      7146        54  POPC      H2Y           -16.0030598163       -6.3905848981      -11.4510052468  MEMB      54              0.0000000000
      7147        54  POPC      C23           -16.0071357333      -13.0089751752      -11.6661719073  MEMB      54              0.0000000000
      7148        54  POPC      H3R           -16.2232082983      -13.9549169069      -12.2055605586  MEMB      54              0.0000000000
      7149        54  POPC      H3S           -16.4590689552      -13.1029664462      -10.6506730386  MEMB      54              0.0000000000
      7150        54  POPC      C24           -14.4845996112      -12.9253146344      -11.4965343304  MEMB      54              0.0000000000
      7151        54  POPC      H4R           -14.0211561930      -12.8298249981      -12.5120160965  MEMB      54              0.0000000000
      7152        54  POPC      H4S           -14.1249814958      -13.8150233637      -10.9500650708  MEMB      54              0.0000000000
      7153        54  POPC      C25           -13.9481307805      -11.7923806404      -10.6673651086  MEMB      54              0.0000000000
      7154        54  POPC      H5R           -14.2321140768      -11.0763216945      -11.4380649561  MEMB      54              0.0000000000
      7155        54  POPC      H5S           -12.8384975771      -11.7507509835      -10.5820018049  MEMB      54              0.0000000000
      7156        54  POPC      C26           -14.6615219565      -11.6822311232       -9.3141591749  MEMB      54              0.0000000000
      7157        54  POPC      H6R           -14.8178412988      -12.7067541448       -8.9274901440  MEMB      54              0.0000000000
      7158        54  POPC      H6S           -15.6560463238      -11.2065019598       -9.4627817965  MEMB      54              0.0000000000
      7159        54  POPC      C27           -13.9075194148      -10.9882566086       -8.1878817657  MEMB      54              0.0000000000
      7160        54  POPC      H7R           -13.0809791646      -10.4455252914       -8.6737173571  MEMB      54              0.0000000000
      7161        54  POPC      H7S           -13.2960016589      -11.6799990732       -7.5754931991  MEMB      54              0.0000000000
      7162        54  POPC      C28           -14.8860477543      -10.1989001185       -7.2531419062  MEMB      54              0.0000000000
      7163        54  POPC      H8R           -14.2264525210       -9.7475921393       -6.4772278697  MEMB      54              0.0000000000
      7164        54  POPC      H8S           -15.4405127649      -11.0027278056       -6.7116720181  MEMB      54              0.0000000000
      7165        54  POPC      C29           -15.9256143357       -9.1674860681       -7.7666396411  MEMB      54              0.0000000000
      7166        54  POPC      H91           -16.2404196035       -9.3323880020       -8.7915004585  MEMB      54              0.0000000000
      7167        54  POPC      C210          -16.5445160815       -8.1116519179       -7.1697394289  MEMB      54              0.0000000000
      7168        54  POPC      H101          -17.2087732096       -7.4126386281       -7.6935305841  MEMB      54              0.0000000000
      7169        54  POPC      C211          -16.3488369750       -7.6752288417       -5.7886680247  MEMB      54              0.0000000000
      7170        54  POPC      H11R          -16.7818419651       -6.7078029893       -5.4571168869  MEMB      54              0.0000000000
      7171        54  POPC      H11S          -15.3469353686       -7.4663032497       -5.6942911009  MEMB      54              0.0000000000
      7172        54  POPC      C212          -16.3106091420       -8.8612093145       -4.9220400920  MEMB      54              0.0000000000
      7173        54  POPC      H12R          -15.6044918877       -9.6682640707       -5.1618596416  MEMB      54              0.0000000000
      7174        54  POPC      H12S          -17.2220711505       -9.3813456049       -4.8734236454  MEMB      54              0.0000000000
      7175        54  POPC      C213          -15.9394272224       -8.5212278860       -3.5771499473  MEMB      54              0.0000000000
      7176        54  POPC      H13R          -15.0684502652       -9.1150416283       -3.5316145415  MEMB      54              0.0000000000
      7177        54  POPC      H13S          -16.4617672788       -9.1969799478       -2.8839679670  MEMB      54              0.0000000000
      7178        54  POPC      C214          -15.8373188926       -7.0892719960       -3.0435945224  MEMB      54              0.0000000000
      7179        54  POPC      H14R          -16.5950204222       -6.4375529194       -3.4833816034  MEMB      54              0.0000000000
      7180        54  POPC      H14S          -15.1728412199       -6.2987474925       -3.3478679340  MEMB      54              0.0000000000
      7181        54  POPC      C215          -15.7363983532       -7.3241198222       -1.4243455868  MEMB      54              0.0000000000
      7182        54  POPC      H15R          -14.8684052762       -7.3986762245       -0.8660605599  MEMB      54              0.0000000000
      7183        54  POPC      H15S          -16.0324349920       -8.2619520266       -1.1123006085  MEMB      54              0.0000000000
      7184        54  POPC      C216          -16.2151072664       -6.3668831005       -0.5838853908  MEMB      54              0.0000000000
      7185        54  POPC      H16R          -16.8265472509       -6.1251422395       -1.3809130588  MEMB      54              0.0000000000
      7186        54  POPC      H16S          -15.5369063684       -5.9970818464       -1.3639603665  MEMB      54              0.0000000000
      7187        54  POPC      C217          -16.3392386356       -5.6119931173        1.0465206218  MEMB      54              0.0000000000
      7188        54  POPC      H17R          -15.6993229296       -5.7343969772        1.5448384625  MEMB      54              0.0000000000
      7189        54  POPC      H17S          -17.0214500348       -5.9763083734        1.8017360717  MEMB      54              0.0000000000
      7190        54  POPC      C218          -15.5182387509       -4.4064443721        1.8109557784  MEMB      54              0.0000000000
      7191        54  POPC      H18R          -16.1973672528       -3.7592281325        1.4404690323  MEMB      54              0.0000000000
      7192        54  POPC      H18S          -14.7991906972       -3.6216660948        1.3921683424  MEMB      54              0.0000000000
      7193        54  POPC      H18T          -14.3980128503       -4.4594748679        1.8544522884  MEMB      54              0.0000000000
      7194        54  POPC      C33           -17.6333551584       -7.1173513849      -12.6529624744  MEMB      54              0.0000000000
      7195        54  POPC      H3X           -17.8795522685       -7.3765926632      -13.6988720351  MEMB      54              0.0000000000
      7196        54  POPC      H3Y           -18.3712976305       -6.3883565619      -12.3747495764  MEMB      54              0.0000000000
      7197        54  POPC      C34           -17.8942132862       -8.2624536928      -11.6957844159  MEMB      54              0.0000000000
      7198        54  POPC      H4X           -17.5027818872       -8.0132101549      -10.6853108369  MEMB      54              0.0000000000
      7199        54  POPC      H4Y           -17.4896667609       -9.1767223075      -12.1470239777  MEMB      54              0.0000000000
      7200        54  POPC      C35           -19.3731923028       -8.4712329165      -11.4968831644  MEMB      54              0.0000000000
      7201        54  POPC      H5X           -19.8819276633       -8.5757262617      -12.4455520502  MEMB      54              0.0000000000
      7202        54  POPC      H5Y           -19.6503955442       -7.4525659076      -11.1650244595  MEMB      54              0.0000000000
      7203        54  POPC      C36           -19.8454405548       -9.5575391795      -10.5002437897  MEMB      54              0.0000000000
      7204        54  POPC      H6X           -20.8971504396       -9.9271360880      -10.5710197029  MEMB      54              0.0000000000
      7205        54  POPC      H6Y           -19.7511864039       -9.0790374826       -9.5380139352  MEMB      54              0.0000000000
      7206        54  POPC      C37           -18.9873043852      -10.7558173326      -10.3232581642  MEMB      54              0.0000000000
      7207        54  POPC      H7X           -17.9495598150      -10.3868787148      -10.1942728982  MEMB      54              0.0000000000
      7208        54  POPC      H7Y           -19.1240292084      -11.3358420136      -11.2557263791  MEMB      54              0.0000000000
      7209        54  POPC      C38           -19.3653944846      -11.5927340949       -9.1051788276  MEMB      54              0.0000000000
      7210        54  POPC      H8X           -18.7379518619      -12.5054188497       -9.1652632299  MEMB      54              0.0000000000
      7211        54  POPC      H8Y           -20.4327697496      -11.9028236783       -9.1235201995  MEMB      54              0.0000000000
      7212        54  POPC      C39           -19.0764609757      -10.9538319516       -7.7510983569  MEMB      54              0.0000000000
      7213        54  POPC      H9X           -19.9635071560      -10.3766233961       -7.4330912182  MEMB      54              0.0000000000
      7214        54  POPC      H9Y           -18.2186660544      -10.2616912654       -7.7769465907  MEMB      54              0.0000000000
      7215        54  POPC      C310          -18.8422402720      -12.0590146030       -6.7254963757  MEMB      54              0.0000000000
      7216        54  POPC      H10X          -17.9314973603      -12.6308134165       -6.9351221255  MEMB      54              0.0000000000
      7217        54  POPC      H10Y          -19.7090984968      -12.7288581100       -6.8938810893  MEMB      54              0.0000000000
      7218        54  POPC      C311          -18.7446216048      -11.5221616995       -5.3052530766  MEMB      54              0.0000000000
      7219        54  POPC      H11X          -19.4615339380      -10.7000906093       -5.3704706693  MEMB      54              0.0000000000
      7220        54  POPC      H11Y          -17.8279583998      -10.9993104983       -5.1275598627  MEMB      54              0.0000000000
      7221        54  POPC      C312          -18.8525100322      -12.5312142318       -4.1386357830  MEMB      54              0.0000000000
      7222        54  POPC      H12X          -17.9982040084      -13.2359440621       -4.2370203237  MEMB      54              0.0000000000
      7223        54  POPC      H12Y          -19.6954974966      -13.2343373014       -4.2632977194  MEMB      54              0.0000000000
      7224        54  POPC      C313          -18.8041252661      -11.9266464487       -2.6840985516  MEMB      54              0.0000000000
      7225        54  POPC      H13X          -17.9030713906      -11.3061477373       -2.5560838495  MEMB      54              0.0000000000
      7226        54  POPC      H13Y          -18.7776636138      -12.8782290057       -2.1636805483  MEMB      54              0.0000000000
      7227        54  POPC      C314          -19.9916999304      -11.2993666622       -1.9096813031  MEMB      54              0.0000000000
      7228        54  POPC      H14X          -20.8625296200      -11.9349722483       -1.8660350097  MEMB      54              0.0000000000
      7229        54  POPC      H14Y          -20.3527349768      -10.4334758082       -2.3272886184  MEMB      54              0.0000000000
      7230        54  POPC      C315          -20.0700891078      -10.9333110450       -0.5216637156  MEMB      54              0.0000000000
      7231        54  POPC      H15X          -19.4310411202      -11.5869552646       -0.0942808023  MEMB      54              0.0000000000
      7232        54  POPC      H15Y          -21.0831638014      -10.6379778659       -0.1735992066  MEMB      54              0.0000000000
      7233        54  POPC      C316          -18.9906557112      -10.2516719070        0.0159130979  MEMB      54              0.0000000000
      7234        54  POPC      H16X          -19.6072826816       -9.5643108669       -0.4251341197  MEMB      54              0.0000000000
      7235        54  POPC      H16Y          -18.1778286431      -10.2598754219       -0.7624900858  MEMB      54              0.0000000000
      7236        54  POPC      H16Z          -19.0318730458       -9.5634749534        0.8757594190  MEMB      54              0.0000000000
      7237        55  POPC      N              19.0199455144       12.3905785925      -18.0068111013  MEMB      55              0.0000000000
      7238        55  POPC      C12            17.7075548116       11.8232461234      -18.5253639904  MEMB      55              0.0000000000
      7239        55  POPC      H12A           16.9734282959       12.6086705355      -18.4539302517  MEMB      55              0.0000000000
      7240        55  POPC      H12B           17.3846288358       11.0031971309      -17.8813262062  MEMB      55              0.0000000000
      7241        55  POPC      C13            19.3718043597       13.6111451700      -18.8022426456  MEMB      55              0.0000000000
      7242        55  POPC      H13A           20.2351615237       14.1444877370      -18.4015241207  MEMB      55              0.0000000000
      7243        55  POPC      H13B           19.6629758107       13.3352392051      -19.8178141723  MEMB      55              0.0000000000
      7244        55  POPC      H13C           18.5555756931       14.3072735005      -18.8818817212  MEMB      55              0.0000000000
      7245        55  POPC      C14            18.9545815817       12.6825760810      -16.5303285842  MEMB      55              0.0000000000
      7246        55  POPC      H14A           18.2639964902       13.4745276570      -16.2789414376  MEMB      55              0.0000000000
      7247        55  POPC      H14B           18.6721546817       11.7909865896      -15.9687215764  MEMB      55              0.0000000000
      7248        55  POPC      H14C           19.9292581198       12.9878910340      -16.1510948796  MEMB      55              0.0000000000
      7249        55  POPC      C15            20.1244626010       11.3954962638      -18.2456435883  MEMB      55              0.0000000000
      7250        55  POPC      H15A           19.8777389025       10.4073031464      -17.8806539968  MEMB      55              0.0000000000
      7251        55  POPC      H15B           21.0733537984       11.7364243724      -17.8651394258  MEMB      55              0.0000000000
      7252        55  POPC      H15C           20.2305876955       11.2423697329      -19.3239392146  MEMB      55              0.0000000000
      7253        55  POPC      C11            17.6859943358       11.2726709185      -19.9818745628  MEMB      55              0.0000000000
      7254        55  POPC      H11A           18.0221417848       12.0638628997      -20.6807070255  MEMB      55              0.0000000000
      7255        55  POPC      H11B           16.6327445429       11.0257099803      -20.2620960774  MEMB      55              0.0000000000
      7256        55  POPC      P              18.0862557381        8.7044491101      -19.8076348991  MEMB      55              0.0000000000
      7257        55  POPC      O13            19.2154211195        7.7549499280      -19.6754409006  MEMB      55              0.0000000000
      7258        55  POPC      O14            16.9697433384        8.2900829472      -20.6793393936  MEMB      55              0.0000000000
      7259        55  POPC      O12            18.5568440652       10.1578444688      -20.1649142897  MEMB      55              0.0000000000
      7260        55  POPC      O11            17.5589149752        8.9535143273      -18.3573237936  MEMB      55              0.0000000000
      7261        55  POPC      C1             17.1803633164        7.8085626136      -17.5998282579  MEMB      55              0.0000000000
      7262        55  POPC      HA             17.8318850793        6.9145528763      -17.7788585675  MEMB      55              0.0000000000
      7263        55  POPC      HB             16.1328425574        7.5290388595      -17.8595753625  MEMB      55              0.0000000000
      7264        55  POPC      C2             17.2456888549        8.1889348386      -16.1104987678  MEMB      55              0.0000000000
      7265        55  POPC      HS             16.7380216167        7.3767346100      -15.5364428044  MEMB      55              0.0000000000
      7266        55  POPC      O21            16.6428221906        9.4847314001      -15.9181395464  MEMB      55              0.0000000000
      7267        55  POPC      C21            15.3310670219        9.4569060309      -15.8635067799  MEMB      55              0.0000000000
      7268        55  POPC      O22            14.6508364453        8.4534243459      -15.7605508439  MEMB      55              0.0000000000
      7269        55  POPC      C22            14.7750767588       10.8842863895      -15.9582709304  MEMB      55              0.0000000000
      7270        55  POPC      H2R            13.6667738767       10.8207196099      -15.8993992010  MEMB      55              0.0000000000
      7271        55  POPC      H2S            15.0380473485       11.2884583946      -16.9548171822  MEMB      55              0.0000000000
      7272        55  POPC      C3             18.7006569488        8.2764400662      -15.5935494952  MEMB      55              0.0000000000
      7273        55  POPC      HX             19.1887735044        9.2024401879      -15.9770761316  MEMB      55              0.0000000000
      7274        55  POPC      HY             19.2777203976        7.4320077061      -16.0285096596  MEMB      55              0.0000000000
      7275        55  POPC      O31            18.6978990383        8.1798883541      -14.1492900353  MEMB      55              0.0000000000
      7276        55  POPC      C31            18.5163510889        9.3528435382      -13.5196012896  MEMB      55              0.0000000000
      7277        55  POPC      O32            18.5968436084       10.4472628733      -14.0453041806  MEMB      55              0.0000000000
      7278        55  POPC      C32            18.2094753910        9.1459396307      -12.0355019905  MEMB      55              0.0000000000
      7279        55  POPC      H2X            17.4601340949        8.3363041391      -11.9128619144  MEMB      55              0.0000000000
      7280        55  POPC      H2Y            17.7744457700       10.0937057971      -11.6592791154  MEMB      55              0.0000000000
      7281        55  POPC      C23            15.3696224194       11.8033328983      -14.8642545429  MEMB      55              0.0000000000
      7282        55  POPC      H3R            15.3860661877       12.8546481147      -15.2403323218  MEMB      55              0.0000000000
      7283        55  POPC      H3S            16.3932910968       11.5113215391      -14.5672517782  MEMB      55              0.0000000000
      7284        55  POPC      C24            14.5278309162       11.8289334733      -13.6056129318  MEMB      55              0.0000000000
      7285        55  POPC      H4R            13.5445219872       12.0620658476      -14.0443327972  MEMB      55              0.0000000000
      7286        55  POPC      H4S            14.7773558970       12.7053550055      -12.9818231940  MEMB      55              0.0000000000
      7287        55  POPC      C25            14.6785398007       10.6098584595      -12.6616157718  MEMB      55              0.0000000000
      7288        55  POPC      H5R            15.7139267566       10.7059559282      -12.2757055215  MEMB      55              0.0000000000
      7289        55  POPC      H5S            14.5257476557        9.6749425859      -13.2333873685  MEMB      55              0.0000000000
      7290        55  POPC      C26            13.8612285806       10.4802101659      -11.3594738150  MEMB      55              0.0000000000
      7291        55  POPC      H6R            12.8208740820       10.4829897213      -11.5228748161  MEMB      55              0.0000000000
      7292        55  POPC      H6S            14.0134018535       11.3022060632      -10.6311736187  MEMB      55              0.0000000000
      7293        55  POPC      C27            13.6004882099        9.0961607473      -10.8187758696  MEMB      55              0.0000000000
      7294        55  POPC      H7R            13.3019395894        8.4463536541      -11.6783586321  MEMB      55              0.0000000000
      7295        55  POPC      H7S            12.7149925714        9.0513420618      -10.1275015358  MEMB      55              0.0000000000
      7296        55  POPC      C28            14.8523472605        8.8369482349      -10.0695169246  MEMB      55              0.0000000000
      7297        55  POPC      H8R            14.7731602447        9.4131641287       -9.1140752424  MEMB      55              0.0000000000
      7298        55  POPC      H8S            15.7031875149        9.2449224238      -10.6523982256  MEMB      55              0.0000000000
      7299        55  POPC      C29            14.9288968336        7.3603786573      -10.0276933365  MEMB      55              0.0000000000
      7300        55  POPC      H91            14.8004713014        6.9059050957      -11.0206384339  MEMB      55              0.0000000000
      7301        55  POPC      C210           15.1293036772        6.5977111416       -8.9593211604  MEMB      55              0.0000000000
      7302        55  POPC      H101           15.1373619486        5.5123460413       -9.1102434406  MEMB      55              0.0000000000
      7303        55  POPC      C211           15.3269255053        7.0670597903       -7.5453123693  MEMB      55              0.0000000000
      7304        55  POPC      H11R           14.6036160578        6.5380582577       -6.8884940669  MEMB      55              0.0000000000
      7305        55  POPC      H11S           15.1643918639        8.1617226490       -7.4123510975  MEMB      55              0.0000000000
      7306        55  POPC      C212           16.7299497744        6.7622031248       -7.0177673332  MEMB      55              0.0000000000
      7307        55  POPC      H12R           17.4463724086        7.4932881993       -7.4619326312  MEMB      55              0.0000000000
      7308        55  POPC      H12S           17.0487966564        5.7405208036       -7.3333133212  MEMB      55              0.0000000000
      7309        55  POPC      C213           16.7338668567        6.8538286254       -5.4810940362  MEMB      55              0.0000000000
      7310        55  POPC      H13R           16.0474559664        6.0648025456       -5.0997078651  MEMB      55              0.0000000000
      7311        55  POPC      H13S           16.3195295215        7.8451485944       -5.2073559726  MEMB      55              0.0000000000
      7312        55  POPC      C214           18.0984090797        6.7349409712       -4.7883142452  MEMB      55              0.0000000000
      7313        55  POPC      H14R           18.8541085474        7.2873676040       -5.3896201788  MEMB      55              0.0000000000
      7314        55  POPC      H14S           18.3478255152        5.6569671785       -4.7499203940  MEMB      55              0.0000000000
      7315        55  POPC      C215           18.1511665378        7.2801500541       -3.3553919901  MEMB      55              0.0000000000
      7316        55  POPC      H15R           17.5163135481        6.6382867234       -2.7073734001  MEMB      55              0.0000000000
      7317        55  POPC      H15S           17.7516940906        8.3198689530       -3.3391908940  MEMB      55              0.0000000000
      7318        55  POPC      C216           19.5534864283        7.2919124910       -2.7383521383  MEMB      55              0.0000000000
      7319        55  POPC      H16R           20.2933821605        7.7725624929       -3.4199385852  MEMB      55              0.0000000000
      7320        55  POPC      H16S           19.9050976802        6.2521859724       -2.5434283451  MEMB      55              0.0000000000
      7321        55  POPC      C217           19.5877970988        8.0083818399       -1.3876768842  MEMB      55              0.0000000000
      7322        55  POPC      H17R           19.4812492256        9.1100057869       -1.5250381799  MEMB      55              0.0000000000
      7323        55  POPC      H17S           20.6273229457        7.8004648762       -1.0469631459  MEMB      55              0.0000000000
      7324        55  POPC      C218           18.5691752597        7.5108788562       -0.3406918492  MEMB      55              0.0000000000
      7325        55  POPC      H18R           18.5658615705        6.4032514900       -0.2920869787  MEMB      55              0.0000000000
      7326        55  POPC      H18S           17.5464294680        7.8807400507       -0.5524812826  MEMB      55              0.0000000000
      7327        55  POPC      H18T           18.8043294454        7.8564888481        0.6816591244  MEMB      55              0.0000000000
      7328        55  POPC      C33            19.4698323981        8.9078900013      -11.1920250244  MEMB      55              0.0000000000
      7329        55  POPC      H3X            20.2697847980        9.6364259874      -11.4197109359  MEMB      55              0.0000000000
      7330        55  POPC      H3Y            19.8997885470        7.9280386137      -11.4827597366  MEMB      55              0.0000000000
      7331        55  POPC      C34            19.1944877637        9.0114707432       -9.6741309609  MEMB      55              0.0000000000
      7332        55  POPC      H4X            18.3390563059        8.3167644358       -9.4182703802  MEMB      55              0.0000000000
      7333        55  POPC      H4Y            19.0110628362       10.0093664753       -9.2662451339  MEMB      55              0.0000000000
      7334        55  POPC      C35            20.3466801648        8.4796168498       -8.8515528380  MEMB      55              0.0000000000
      7335        55  POPC      H5X            20.2251146913        7.7215814888       -9.5442925582  MEMB      55              0.0000000000
      7336        55  POPC      H5Y            20.0687205361        8.1242297300       -7.8533203319  MEMB      55              0.0000000000
      7337        55  POPC      C36            21.8313800952        8.7207482109       -8.9847174495  MEMB      55              0.0000000000
      7338        55  POPC      H6X            22.1769384148        8.7372557287      -10.0414663940  MEMB      55              0.0000000000
      7339        55  POPC      H6Y            22.4071504506        7.8990745042       -8.4776503956  MEMB      55              0.0000000000
      7340        55  POPC      C37            21.9635788015        9.9854885504       -8.2117546210  MEMB      55              0.0000000000
      7341        55  POPC      H7X            21.4549826326       10.7353741430       -8.8639432513  MEMB      55              0.0000000000
      7342        55  POPC      H7Y            23.0361528677       10.2222227665       -8.0867053486  MEMB      55              0.0000000000
      7343        55  POPC      C38            21.2464904096        9.9321675661       -6.8426940157  MEMB      55              0.0000000000
      7344        55  POPC      H8X            21.6786432013        9.1153802143       -6.2336075894  MEMB      55              0.0000000000
      7345        55  POPC      H8Y            20.1396839426        9.7792829984       -6.8872697027  MEMB      55              0.0000000000
      7346        55  POPC      C39            21.3340321070       11.2491129566       -6.1316653202  MEMB      55              0.0000000000
      7347        55  POPC      H9X            22.3798513015       11.5781373775       -6.2285088544  MEMB      55              0.0000000000
      7348        55  POPC      H9Y            21.1663430067       11.1323350045       -5.0458197923  MEMB      55              0.0000000000
      7349        55  POPC      C310           20.2754372639       12.1750112307       -6.7350335531  MEMB      55              0.0000000000
      7350        55  POPC      H10X           20.2371978476       12.1720352260       -7.8442975648  MEMB      55              0.0000000000
      7351        55  POPC      H10Y           20.4627279851       13.1946480267       -6.5273236545  MEMB      55              0.0000000000
      7352        55  POPC      C311           18.9517110417       12.2213448346       -5.9982064079  MEMB      55              0.0000000000
      7353        55  POPC      H11X           18.8220101909       11.2640901576       -5.4604989326  MEMB      55              0.0000000000
      7354        55  POPC      H11Y           18.1805496473       12.3668918780       -6.7846986146  MEMB      55              0.0000000000
      7355        55  POPC      C312           18.8103315762       13.4027540163       -5.0162973294  MEMB      55              0.0000000000
      7356        55  POPC      H12X           18.9895489368       14.3834351680       -5.5180273400  MEMB      55              0.0000000000
      7357        55  POPC      H12Y           19.5516985660       13.3409001969       -4.1875716860  MEMB      55              0.0000000000
      7358        55  POPC      C313           17.3641013615       13.4971785868       -4.5560855064  MEMB      55              0.0000000000
      7359        55  POPC      H13X           16.6625702783       13.2897898970       -5.3784452581  MEMB      55              0.0000000000
      7360        55  POPC      H13Y           17.2029343815       14.5348717363       -4.1923248412  MEMB      55              0.0000000000
      7361        55  POPC      C314           17.0141483867       12.6133953375       -3.4133456369  MEMB      55              0.0000000000
      7362        55  POPC      H14X           17.2778777642       11.5326138690       -3.4894309789  MEMB      55              0.0000000000
      7363        55  POPC      H14Y           15.9193512685       12.6795151966       -3.1858980028  MEMB      55              0.0000000000
      7364        55  POPC      C315           17.6765463862       13.2569949095       -2.2743909520  MEMB      55              0.0000000000
      7365        55  POPC      H15X           17.3535796397       14.2912662359       -2.0901202834  MEMB      55              0.0000000000
      7366        55  POPC      H15Y           18.7943879029       13.2809384629       -2.2493548400  MEMB      55              0.0000000000
      7367        55  POPC      C316           17.1653295975       12.5007789141       -1.1921865522  MEMB      55              0.0000000000
      7368        55  POPC      H16X           17.2413041032       11.3862554009       -1.3049319642  MEMB      55              0.0000000000
      7369        55  POPC      H16Y           16.2363858850       12.7315312716       -0.6418001535  MEMB      55              0.0000000000
      7370        55  POPC      H16Z           17.9224505781       12.9380135442       -0.5098539538  MEMB      55              0.0000000000
      7371        56  POPC      N              -6.0183219354      -21.2491510810      -20.5315926104  MEMB      56              0.0000000000
      7372        56  POPC      C12            -5.6077637661      -22.5359351645      -19.8234944040  MEMB      56              0.0000000000
      7373        56  POPC      H12A           -5.6866964888      -23.3698558182      -20.4962552070  MEMB      56              0.0000000000
      7374        56  POPC      H12B           -6.2665278229      -22.7284618915      -18.9828634938  MEMB      56              0.0000000000
      7375        56  POPC      C13            -6.0222218865      -20.1321293643      -19.5168900378  MEMB      56              0.0000000000
      7376        56  POPC      H13A           -6.2394159144      -19.1781247156      -19.9641890657  MEMB      56              0.0000000000
      7377        56  POPC      H13B           -6.7093188679      -20.3063213827      -18.6975158829  MEMB      56              0.0000000000
      7378        56  POPC      H13C           -5.0395087217      -20.0977808430      -19.0224359823  MEMB      56              0.0000000000
      7379        56  POPC      C14            -5.0471816629      -20.8575280788      -21.6137923875  MEMB      56              0.0000000000
      7380        56  POPC      H14A           -4.0579652309      -20.7655062687      -21.1708559914  MEMB      56              0.0000000000
      7381        56  POPC      H14B           -4.9491234122      -21.5876594744      -22.4099394896  MEMB      56              0.0000000000
      7382        56  POPC      H14C           -5.3062224718      -19.9248239871      -22.1113712435  MEMB      56              0.0000000000
      7383        56  POPC      C15            -7.3737439897      -21.4071600901      -21.1163175393  MEMB      56              0.0000000000
      7384        56  POPC      H15A           -8.1179690980      -21.4496384902      -20.3305594240  MEMB      56              0.0000000000
      7385        56  POPC      H15B           -7.4679320521      -22.3036299184      -21.7215056189  MEMB      56              0.0000000000
      7386        56  POPC      H15C           -7.5822487019      -20.5538861286      -21.7484514324  MEMB      56              0.0000000000
      7387        56  POPC      C11            -4.1902898214      -22.6411115227      -19.2849335694  MEMB      56              0.0000000000
      7388        56  POPC      H11A           -3.4494854092      -22.4230495263      -20.0903044986  MEMB      56              0.0000000000
      7389        56  POPC      H11B           -4.0364509738      -23.7053342028      -18.9599860031  MEMB      56              0.0000000000
      7390        56  POPC      P              -2.6565403549      -21.8533149071      -17.5032296516  MEMB      56              0.0000000000
      7391        56  POPC      O13            -2.5692310296      -20.9465495897      -16.3361864362  MEMB      56              0.0000000000
      7392        56  POPC      O14            -1.6515548592      -21.7647497202      -18.5737651925  MEMB      56              0.0000000000
      7393        56  POPC      O12            -4.0691143370      -21.7264887112      -18.2014332276  MEMB      56              0.0000000000
      7394        56  POPC      O11            -2.7253157493      -23.3640490182      -17.0893594988  MEMB      56              0.0000000000
      7395        56  POPC      C1             -1.7605374274      -23.8889527219      -16.2271644058  MEMB      56              0.0000000000
      7396        56  POPC      HA             -0.9296938246      -23.1857250739      -15.9323612450  MEMB      56              0.0000000000
      7397        56  POPC      HB             -1.2729035996      -24.7746142887      -16.6844507774  MEMB      56              0.0000000000
      7398        56  POPC      C2             -2.5641957231      -24.2468512769      -15.0054374222  MEMB      56              0.0000000000
      7399        56  POPC      HS             -3.0554148497      -25.2465844495      -15.1428471869  MEMB      56              0.0000000000
      7400        56  POPC      O21            -3.3701821852      -23.1826318187      -14.5408076885  MEMB      56              0.0000000000
      7401        56  POPC      C21            -4.4294554383      -23.6020717312      -13.9709950859  MEMB      56              0.0000000000
      7402        56  POPC      O22            -4.9464489617      -24.6979513241      -14.1273232816  MEMB      56              0.0000000000
      7403        56  POPC      C22            -4.8028906047      -22.5149696339      -13.0142717545  MEMB      56              0.0000000000
      7404        56  POPC      H2R            -4.7271385569      -21.5478381508      -13.5555602508  MEMB      56              0.0000000000
      7405        56  POPC      H2S            -4.1054958351      -22.4412782383      -12.1646171719  MEMB      56              0.0000000000
      7406        56  POPC      C3             -1.6883347193      -24.5183639937      -13.9577260759  MEMB      56              0.0000000000
      7407        56  POPC      HX             -0.9622200521      -25.1878419399      -14.5035924121  MEMB      56              0.0000000000
      7408        56  POPC      HY             -2.1792286494      -25.0203988721      -13.0904600947  MEMB      56              0.0000000000
      7409        56  POPC      O31            -1.0514064718      -23.3332994319      -13.5656305634  MEMB      56              0.0000000000
      7410        56  POPC      C31            -1.4109550350      -22.7896726500      -12.4291644663  MEMB      56              0.0000000000
      7411        56  POPC      O32            -2.1396630419      -23.2358533568      -11.5702926870  MEMB      56              0.0000000000
      7412        56  POPC      C32            -0.5593528208      -21.5949122813      -12.3527857690  MEMB      56              0.0000000000
      7413        56  POPC      H2X            -0.1881163222      -21.4997427204      -13.4027807026  MEMB      56              0.0000000000
      7414        56  POPC      H2Y             0.1922808517      -21.6209352238      -11.5287170306  MEMB      56              0.0000000000
      7415        56  POPC      C23            -6.1957583912      -22.7563061106      -12.4803802015  MEMB      56              0.0000000000
      7416        56  POPC      H3R            -6.9328520787      -22.7451840028      -13.3147620424  MEMB      56              0.0000000000
      7417        56  POPC      H3S            -6.2844015582      -21.8844758463      -11.8148524096  MEMB      56              0.0000000000
      7418        56  POPC      C24            -6.3904561334      -23.9689908312      -11.5721362730  MEMB      56              0.0000000000
      7419        56  POPC      H4R            -6.3326317054      -24.9013711707      -12.1771776590  MEMB      56              0.0000000000
      7420        56  POPC      H4S            -7.4288214361      -23.8942162011      -11.1782958884  MEMB      56              0.0000000000
      7421        56  POPC      C25            -5.3671553024      -24.0271997657      -10.4238875578  MEMB      56              0.0000000000
      7422        56  POPC      H5R            -5.4854487176      -23.1274904058       -9.7845079518  MEMB      56              0.0000000000
      7423        56  POPC      H5S            -4.3354470805      -24.0406082404      -10.8304387478  MEMB      56              0.0000000000
      7424        56  POPC      C26            -5.5076075826      -25.2776719297       -9.5727575260  MEMB      56              0.0000000000
      7425        56  POPC      H6R            -5.7160475335      -26.1260988408      -10.2625558247  MEMB      56              0.0000000000
      7426        56  POPC      H6S            -6.3593837574      -25.1053565709       -8.8722056699  MEMB      56              0.0000000000
      7427        56  POPC      C27            -4.3167826085      -25.7246265829       -8.7276388569  MEMB      56              0.0000000000
      7428        56  POPC      H7R            -3.5158062335      -26.1088842635       -9.3974337445  MEMB      56              0.0000000000
      7429        56  POPC      H7S            -4.6580924486      -26.5902054648       -8.1079004213  MEMB      56              0.0000000000
      7430        56  POPC      C28            -3.8308032057      -24.5887402453       -7.8268420561  MEMB      56              0.0000000000
      7431        56  POPC      H8R            -4.6528564565      -24.3037345903       -7.1405696887  MEMB      56              0.0000000000
      7432        56  POPC      H8S            -3.6114732502      -23.6920240274       -8.4496988256  MEMB      56              0.0000000000
      7433        56  POPC      C29            -2.6570829802      -24.9798803778       -6.9931189262  MEMB      56              0.0000000000
      7434        56  POPC      H91            -2.8449679164      -25.6690892105       -6.1649315940  MEMB      56              0.0000000000
      7435        56  POPC      C210           -1.4285778479      -24.5152752168       -7.1426421860  MEMB      56              0.0000000000
      7436        56  POPC      H101           -0.6166869633      -24.9609312664       -6.5699109939  MEMB      56              0.0000000000
      7437        56  POPC      C211           -0.9434134138      -23.5444795587       -8.1395436756  MEMB      56              0.0000000000
      7438        56  POPC      H11R           -1.5963098756      -23.3532626870       -9.0153817824  MEMB      56              0.0000000000
      7439        56  POPC      H11S           -0.1576318824      -24.1908888444       -8.4844375950  MEMB      56              0.0000000000
      7440        56  POPC      C212           -0.2704934721      -22.2670999641       -7.6493986122  MEMB      56              0.0000000000
      7441        56  POPC      H12R            0.2943227653      -21.7314384294       -8.4438836141  MEMB      56              0.0000000000
      7442        56  POPC      H12S            0.4422054863      -22.5352201343       -6.8479618943  MEMB      56              0.0000000000
      7443        56  POPC      C213           -1.2410712657      -21.2636944315       -7.1148900229  MEMB      56              0.0000000000
      7444        56  POPC      H13R           -1.9964377781      -21.8368249285       -6.5393024902  MEMB      56              0.0000000000
      7445        56  POPC      H13S           -1.7598619957      -20.7656807677       -7.9596358550  MEMB      56              0.0000000000
      7446        56  POPC      C214           -0.4700299654      -20.2476117669       -6.2845739819  MEMB      56              0.0000000000
      7447        56  POPC      H14R           -0.1169122511      -19.4402610298       -6.9663422914  MEMB      56              0.0000000000
      7448        56  POPC      H14S            0.4463957048      -20.6987707561       -5.8375505813  MEMB      56              0.0000000000
      7449        56  POPC      C215           -1.3471131048      -19.6610290088       -5.1873162809  MEMB      56              0.0000000000
      7450        56  POPC      H15R           -2.1638339007      -19.1222012818       -5.7162532938  MEMB      56              0.0000000000
      7451        56  POPC      H15S           -0.7278530815      -18.9173065953       -4.6398597413  MEMB      56              0.0000000000
      7452        56  POPC      C216           -1.9123406271      -20.6915283094       -4.1785281044  MEMB      56              0.0000000000
      7453        56  POPC      H16R           -2.5395501509      -21.4558500144       -4.6804242424  MEMB      56              0.0000000000
      7454        56  POPC      H16S           -2.5748087498      -20.1530164776       -3.4715131672  MEMB      56              0.0000000000
      7455        56  POPC      C217           -0.7889638654      -21.3938952789       -3.3992412742  MEMB      56              0.0000000000
      7456        56  POPC      H17R           -0.1496361760      -20.5904821059       -2.9711591235  MEMB      56              0.0000000000
      7457        56  POPC      H17S           -0.2017079675      -21.9524843540       -4.1432165063  MEMB      56              0.0000000000
      7458        56  POPC      C218           -1.1322387585      -22.4095486678       -2.3022604694  MEMB      56              0.0000000000
      7459        56  POPC      H18R           -0.2292458065      -22.5900013847       -1.6749530675  MEMB      56              0.0000000000
      7460        56  POPC      H18S           -1.4691185283      -23.3784326875       -2.7163710160  MEMB      56              0.0000000000
      7461        56  POPC      H18T           -1.9517306102      -22.0539973746       -1.6626611153  MEMB      56              0.0000000000
      7462        56  POPC      C33            -1.0421031416      -20.2411830556      -12.2809687387  MEMB      56              0.0000000000
      7463        56  POPC      H3X            -1.6886956627      -20.1436641113      -13.1872563736  MEMB      56              0.0000000000
      7464        56  POPC      H3Y            -0.1584436828      -19.5544510208      -12.3727242038  MEMB      56              0.0000000000
      7465        56  POPC      C34            -1.6311078521      -20.2065711975      -10.9267483072  MEMB      56              0.0000000000
      7466        56  POPC      H4X            -0.9091674497      -19.9219791153      -10.1237746061  MEMB      56              0.0000000000
      7467        56  POPC      H4Y            -2.0847794322      -21.1638819358      -10.6183097457  MEMB      56              0.0000000000
      7468        56  POPC      C35            -2.6577042482      -19.1991855070      -11.1363249576  MEMB      56              0.0000000000
      7469        56  POPC      H5X            -3.1476500848      -19.2290123611      -12.1377528957  MEMB      56              0.0000000000
      7470        56  POPC      H5Y            -1.9764376277      -18.3593115481      -11.1490577568  MEMB      56              0.0000000000
      7471        56  POPC      C36            -3.6214312930      -19.1726218488      -10.0152784536  MEMB      56              0.0000000000
      7472        56  POPC      H6X            -4.3113897976      -18.3330416188      -10.2681841464  MEMB      56              0.0000000000
      7473        56  POPC      H6Y            -3.1125689856      -18.9399684439       -9.0526946122  MEMB      56              0.0000000000
      7474        56  POPC      C37            -4.3486964108      -20.4949892216       -9.9304351526  MEMB      56              0.0000000000
      7475        56  POPC      H7X            -3.7581184090      -21.3529874160       -9.5533410678  MEMB      56              0.0000000000
      7476        56  POPC      H7Y            -4.7136336581      -20.7104891243      -10.9617404093  MEMB      56              0.0000000000
      7477        56  POPC      C38            -5.4983882295      -20.3251317125       -9.0036871262  MEMB      56              0.0000000000
      7478        56  POPC      H8X            -6.3121508066      -21.0026235889       -9.3356950192  MEMB      56              0.0000000000
      7479        56  POPC      H8Y            -5.7616455647      -19.2715168437       -9.2307094228  MEMB      56              0.0000000000
      7480        56  POPC      C39            -5.2036501685      -20.5466443145       -7.4995111857  MEMB      56              0.0000000000
      7481        56  POPC      H9X            -4.4176359613      -19.8299037456       -7.1793168787  MEMB      56              0.0000000000
      7482        56  POPC      H9Y            -4.8174069200      -21.5821329830       -7.4566798485  MEMB      56              0.0000000000
      7483        56  POPC      C310           -6.4555336418      -20.5077998712       -6.5872103651  MEMB      56              0.0000000000
      7484        56  POPC      H10X           -7.2031536883      -21.2255544259       -6.9811914004  MEMB      56              0.0000000000
      7485        56  POPC      H10Y           -6.8484930152      -19.4927525412       -6.5919983940  MEMB      56              0.0000000000
      7486        56  POPC      C311           -6.4621890896      -20.5338857264       -5.0728050314  MEMB      56              0.0000000000
      7487        56  POPC      H11X           -7.5099165518      -20.5448961604       -4.7069751566  MEMB      56              0.0000000000
      7488        56  POPC      H11Y           -6.0162420464      -19.6750086069       -4.5650981453  MEMB      56              0.0000000000
      7489        56  POPC      C312           -5.5492490089      -21.5570808147       -4.5821312544  MEMB      56              0.0000000000
      7490        56  POPC      H12X           -4.5696605682      -21.3517036958       -5.0742686616  MEMB      56              0.0000000000
      7491        56  POPC      H12Y           -5.9619139596      -22.5209290346       -4.9365868407  MEMB      56              0.0000000000
      7492        56  POPC      C313           -5.4060219568      -21.4188936654       -3.0792359609  MEMB      56              0.0000000000
      7493        56  POPC      H13X           -6.3995288198      -21.3453640481       -2.5920461272  MEMB      56              0.0000000000
      7494        56  POPC      H13Y           -4.8088725330      -20.5129697301       -2.8205956409  MEMB      56              0.0000000000
      7495        56  POPC      C314           -4.7824115775      -22.7065185597       -2.6406908337  MEMB      56              0.0000000000
      7496        56  POPC      H14X           -3.8180060280      -22.8035268633       -3.1838014326  MEMB      56              0.0000000000
      7497        56  POPC      H14Y           -5.4865750212      -23.4702849130       -3.0280669803  MEMB      56              0.0000000000
      7498        56  POPC      C315           -4.5934025591      -22.8897991138       -1.1446814214  MEMB      56              0.0000000000
      7499        56  POPC      H15X           -3.9673115754      -22.0603481699       -0.7594049902  MEMB      56              0.0000000000
      7500        56  POPC      H15Y           -4.0119040554      -23.8344991282       -1.0532368466  MEMB      56              0.0000000000
      7501        56  POPC      C316           -5.8823105472      -23.0180274546       -0.3283558019  MEMB      56              0.0000000000
      7502        56  POPC      H16X           -5.6956690084      -23.2319268272        0.7351432797  MEMB      56              0.0000000000
      7503        56  POPC      H16Y           -6.4864693714      -23.8409492634       -0.7105988741  MEMB      56              0.0000000000
      7504        56  POPC      H16Z           -6.5349942270      -22.1385661431       -0.3720456601  MEMB      56              0.0000000000
      7505        57  POPC      N              23.3300658454        5.5691094256      -17.7151877217  MEMB      57              0.0000000000
      7506        57  POPC      C12            23.9349152450        4.2007214674      -17.4600580390  MEMB      57              0.0000000000
      7507        57  POPC      H12A           23.1305332028        3.4602749588      -17.4634514590  MEMB      57              0.0000000000
      7508        57  POPC      H12B           24.3543537227        4.2383020780      -16.4638888195  MEMB      57              0.0000000000
      7509        57  POPC      C13            24.3408138382        6.6304557049      -18.0174637445  MEMB      57              0.0000000000
      7510        57  POPC      H13A           24.9383632628        6.3357208329      -18.8865298455  MEMB      57              0.0000000000
      7511        57  POPC      H13B           23.8410491491        7.5474280482      -18.3449482683  MEMB      57              0.0000000000
      7512        57  POPC      H13C           24.9853357224        6.8466830579      -17.1837538802  MEMB      57              0.0000000000
      7513        57  POPC      C14            22.4793942160        5.5053972971      -18.8906993865  MEMB      57              0.0000000000
      7514        57  POPC      H14A           23.1289199433        5.0584084297      -19.6600801891  MEMB      57              0.0000000000
      7515        57  POPC      H14B           21.6811271481        4.7644892188      -18.8970912879  MEMB      57              0.0000000000
      7516        57  POPC      H14C           22.1695632543        6.4454565054      -19.3369879292  MEMB      57              0.0000000000
      7517        57  POPC      C15            22.3973674844        5.9750967496      -16.6538714852  MEMB      57              0.0000000000
      7518        57  POPC      H15A           22.0361824958        6.9693387635      -16.8911197223  MEMB      57              0.0000000000
      7519        57  POPC      H15B           22.8835534967        5.9522809799      -15.6996971629  MEMB      57              0.0000000000
      7520        57  POPC      H15C           21.5480514651        5.3010569214      -16.6531017339  MEMB      57              0.0000000000
      7521        57  POPC      C11            25.0752629494        3.6503060160      -18.3822492304  MEMB      57              0.0000000000
      7522        57  POPC      H11A           25.4185797202        2.6951529686      -17.9097542464  MEMB      57              0.0000000000
      7523        57  POPC      H11B           25.9272613141        4.3608170092      -18.3255302611  MEMB      57              0.0000000000
      7524        57  POPC      P              24.1662207507        2.0435186450      -20.2512439761  MEMB      57              0.0000000000
      7525        57  POPC      O13            25.1645468394        0.9609695680      -20.1412050538  MEMB      57              0.0000000000
      7526        57  POPC      O14            23.4743389740        2.1586666285      -21.5331564089  MEMB      57              0.0000000000
      7527        57  POPC      O12            24.7417714445        3.4652615595      -19.7669893211  MEMB      57              0.0000000000
      7528        57  POPC      O11            23.0156986826        1.8015834321      -19.1593922033  MEMB      57              0.0000000000
      7529        57  POPC      C1             21.8375520912        1.0867897953      -19.5842629997  MEMB      57              0.0000000000
      7530        57  POPC      HA             22.1410231088        0.1603568613      -20.1193928484  MEMB      57              0.0000000000
      7531        57  POPC      HB             21.2157643152        1.6912748569      -20.2848207410  MEMB      57              0.0000000000
      7532        57  POPC      C2             20.9494248429        0.6859299515      -18.3755849312  MEMB      57              0.0000000000
      7533        57  POPC      HS             20.0978316738        0.0664255399      -18.7440241444  MEMB      57              0.0000000000
      7534        57  POPC      O21            20.4635383242        1.8944214447      -17.7322074255  MEMB      57              0.0000000000
      7535        57  POPC      C21            19.6737961517        1.6876954425      -16.6810221546  MEMB      57              0.0000000000
      7536        57  POPC      O22            19.0752604114        0.6639828582      -16.4459310199  MEMB      57              0.0000000000
      7537        57  POPC      C22            19.6227319707        2.9786207730      -15.8628659482  MEMB      57              0.0000000000
      7538        57  POPC      H2R            19.3339076307        3.8197790612      -16.5217676533  MEMB      57              0.0000000000
      7539        57  POPC      H2S            20.6385322397        3.1459288353      -15.4454186581  MEMB      57              0.0000000000
      7540        57  POPC      C3             21.7957727377       -0.1656727077      -17.4096194611  MEMB      57              0.0000000000
      7541        57  POPC      HX             22.4091183241       -0.8872925370      -17.9992126984  MEMB      57              0.0000000000
      7542        57  POPC      HY             21.1528304001       -0.7470570482      -16.7102551779  MEMB      57              0.0000000000
      7543        57  POPC      O31            22.6143101249        0.7703982685      -16.6990991204  MEMB      57              0.0000000000
      7544        57  POPC      C31            23.5145470425        0.2347778324      -15.9587178890  MEMB      57              0.0000000000
      7545        57  POPC      O32            23.7672774744       -0.9533477578      -15.8668473292  MEMB      57              0.0000000000
      7546        57  POPC      C32            24.0921611325        1.3443074606      -15.0983949251  MEMB      57              0.0000000000
      7547        57  POPC      H2X            23.6259404293        2.3234218575      -15.3137867676  MEMB      57              0.0000000000
      7548        57  POPC      H2Y            25.1781134831        1.3953086264      -15.3155248375  MEMB      57              0.0000000000
      7549        57  POPC      C23            18.5827652903        2.8710669620      -14.7456189213  MEMB      57              0.0000000000
      7550        57  POPC      H3R            18.7749943785        1.9167447227      -14.1953105666  MEMB      57              0.0000000000
      7551        57  POPC      H3S            17.5634723026        2.8087722748      -15.1905597298  MEMB      57              0.0000000000
      7552        57  POPC      C24            18.5638151391        4.0544668725      -13.7659529281  MEMB      57              0.0000000000
      7553        57  POPC      H4R            17.8670566062        3.8505715693      -12.9210902397  MEMB      57              0.0000000000
      7554        57  POPC      H4S            18.1615057171        4.9496432425      -14.2789025349  MEMB      57              0.0000000000
      7555        57  POPC      C25            19.9152012391        4.3251750201      -13.1235928124  MEMB      57              0.0000000000
      7556        57  POPC      H5R            20.6100769521        4.8183153316      -13.8366881799  MEMB      57              0.0000000000
      7557        57  POPC      H5S            20.3640570732        3.3635645635      -12.7853682572  MEMB      57              0.0000000000
      7558        57  POPC      C26            19.7880442303        5.1493857204      -11.8565457241  MEMB      57              0.0000000000
      7559        57  POPC      H6R            18.8572542236        4.8827057561      -11.3082922493  MEMB      57              0.0000000000
      7560        57  POPC      H6S            19.6503559426        6.1921164345      -12.1983942594  MEMB      57              0.0000000000
      7561        57  POPC      C27            20.9967159291        4.8399936165      -10.9478213902  MEMB      57              0.0000000000
      7562        57  POPC      H7R            21.9460200991        4.9940675173      -11.5150395507  MEMB      57              0.0000000000
      7563        57  POPC      H7S            20.9380416683        3.8235611105      -10.5182588797  MEMB      57              0.0000000000
      7564        57  POPC      C28            21.1122739242        5.6967463191       -9.7358481949  MEMB      57              0.0000000000
      7565        57  POPC      H8R            21.2974072505        6.6149431769      -10.3612690304  MEMB      57              0.0000000000
      7566        57  POPC      H8S            22.0556592092        5.6858447208       -9.1646998851  MEMB      57              0.0000000000
      7567        57  POPC      C29            19.8582181844        5.6312915466       -8.8484737538  MEMB      57              0.0000000000
      7568        57  POPC      H91            18.9246539170        6.0003500410       -9.3192019488  MEMB      57              0.0000000000
      7569        57  POPC      C210           19.8861383091        5.7905938137       -7.5175298707  MEMB      57              0.0000000000
      7570        57  POPC      H101           18.9705250068        6.0949404675       -7.0265277943  MEMB      57              0.0000000000
      7571        57  POPC      C211           21.0772931712        6.0398966238       -6.6344915178  MEMB      57              0.0000000000
      7572        57  POPC      H11R           21.0372190302        7.0353893157       -6.1356214418  MEMB      57              0.0000000000
      7573        57  POPC      H11S           22.0374834978        5.9815732143       -7.1811394472  MEMB      57              0.0000000000
      7574        57  POPC      C212           21.0416208222        4.9401339342       -5.5957765870  MEMB      57              0.0000000000
      7575        57  POPC      H12R           20.0741887838        4.9218239502       -5.0640233337  MEMB      57              0.0000000000
      7576        57  POPC      H12S           21.8110541870        5.1493129303       -4.8216875365  MEMB      57              0.0000000000
      7577        57  POPC      C213           21.2801130417        3.6020632475       -6.2993344834  MEMB      57              0.0000000000
      7578        57  POPC      H13R           22.3783929335        3.4859230640       -6.3971078280  MEMB      57              0.0000000000
      7579        57  POPC      H13S           20.8629265400        3.5886767909       -7.3262030201  MEMB      57              0.0000000000
      7580        57  POPC      C214           20.6453924388        2.4206986354       -5.6015150425  MEMB      57              0.0000000000
      7581        57  POPC      H14R           20.7033352223        1.5179506143       -6.2531657967  MEMB      57              0.0000000000
      7582        57  POPC      H14S           19.5661139338        2.6055583834       -5.3919629126  MEMB      57              0.0000000000
      7583        57  POPC      C215           21.4148376411        2.1522779537       -4.3333946566  MEMB      57              0.0000000000
      7584        57  POPC      H15R           20.8974652379        2.7025353874       -3.5461295611  MEMB      57              0.0000000000
      7585        57  POPC      H15S           22.4134590632        2.6289276741       -4.3389674870  MEMB      57              0.0000000000
      7586        57  POPC      C216           21.6379848639        0.6634364790       -4.1735499517  MEMB      57              0.0000000000
      7587        57  POPC      H16R           22.1646398231        0.2473051711       -5.0497064917  MEMB      57              0.0000000000
      7588        57  POPC      H16S           20.6600478770        0.1287216341       -4.0971664742  MEMB      57              0.0000000000
      7589        57  POPC      C217           22.5240327453        0.3090602855       -3.0257040815  MEMB      57              0.0000000000
      7590        57  POPC      H17R           22.9539231385        1.2006153629       -2.5112031305  MEMB      57              0.0000000000
      7591        57  POPC      H17S           23.3521570172       -0.3864404866       -3.2538390447  MEMB      57              0.0000000000
      7592        57  POPC      C218           21.5882332390       -0.3532551455       -2.1155800744  MEMB      57              0.0000000000
      7593        57  POPC      H18R           20.6965548900       -0.9064960090       -2.4500160843  MEMB      57              0.0000000000
      7594        57  POPC      H18S           21.1621005639        0.5661617051       -1.6411338155  MEMB      57              0.0000000000
      7595        57  POPC      H18T           22.1522361894       -1.0238633176       -1.4382301816  MEMB      57              0.0000000000
      7596        57  POPC      C33            23.8713845304        0.9826295327      -13.6274210067  MEMB      57              0.0000000000
      7597        57  POPC      H3X            24.5945799013        1.5887824566      -13.0340237900  MEMB      57              0.0000000000
      7598        57  POPC      H3Y            24.1119519561       -0.1011465255      -13.5486992546  MEMB      57              0.0000000000
      7599        57  POPC      C34            22.4479831802        1.1672858188      -13.0809030773  MEMB      57              0.0000000000
      7600        57  POPC      H4X            21.7955836910        0.5070214860      -13.7049356660  MEMB      57              0.0000000000
      7601        57  POPC      H4Y            22.1724024473        2.2269876249      -13.2288741297  MEMB      57              0.0000000000
      7602        57  POPC      C35            22.1933626236        0.7565775587      -11.6042578527  MEMB      57              0.0000000000
      7603        57  POPC      H5X            22.4829436196       -0.2793012923      -11.5104052372  MEMB      57              0.0000000000
      7604        57  POPC      H5Y            21.1149643036        0.7128495014      -11.3545700271  MEMB      57              0.0000000000
      7605        57  POPC      C36            23.0240687057        1.4228870410      -10.5019738646  MEMB      57              0.0000000000
      7606        57  POPC      H6X            22.5744969342        2.3932074993      -10.2111944639  MEMB      57              0.0000000000
      7607        57  POPC      H6Y            24.0482106258        1.6142121673      -10.8926057447  MEMB      57              0.0000000000
      7608        57  POPC      C37            23.1934720950        0.5280687166       -9.2603333113  MEMB      57              0.0000000000
      7609        57  POPC      H7X            23.8755745889       -0.3117441918       -9.5198836541  MEMB      57              0.0000000000
      7610        57  POPC      H7Y            22.2412940249        0.0614787346       -8.9217369949  MEMB      57              0.0000000000
      7611        57  POPC      C38            23.7861114709        1.3043256617       -8.0896503893  MEMB      57              0.0000000000
      7612        57  POPC      H8X            23.0139600228        1.9441911531       -7.6184605105  MEMB      57              0.0000000000
      7613        57  POPC      H8Y            24.6263345220        1.9427939726       -8.4427477430  MEMB      57              0.0000000000
      7614        57  POPC      C39            24.3322360927        0.3622059968       -7.0531987916  MEMB      57              0.0000000000
      7615        57  POPC      H9X            25.1486316967       -0.1986788290       -7.5508501855  MEMB      57              0.0000000000
      7616        57  POPC      H9Y            23.5814727428       -0.4020427682       -6.7697802555  MEMB      57              0.0000000000
      7617        57  POPC      C310           24.7592407531        1.0566416090       -5.7631916460  MEMB      57              0.0000000000
      7618        57  POPC      H10X           25.1798082994        0.2200272038       -5.2510427067  MEMB      57              0.0000000000
      7619        57  POPC      H10Y           23.9155467256        1.3868291013       -5.1361551006  MEMB      57              0.0000000000
      7620        57  POPC      C311           25.7447348197        2.2198855516       -5.7958550795  MEMB      57              0.0000000000
      7621        57  POPC      H11X           25.8256209221        2.6946835589       -6.7829914869  MEMB      57              0.0000000000
      7622        57  POPC      H11Y           26.7940947395        2.0852662565       -5.5328737123  MEMB      57              0.0000000000
      7623        57  POPC      C312           25.6078337971        3.0216133330       -4.5588206776  MEMB      57              0.0000000000
      7624        57  POPC      H12X           24.7322340734        3.6632001510       -4.6808216243  MEMB      57              0.0000000000
      7625        57  POPC      H12Y           26.4457706692        3.6782645379       -4.3886690408  MEMB      57              0.0000000000
      7626        57  POPC      C313           25.8841273200        2.3176031176       -3.2473507090  MEMB      57              0.0000000000
      7627        57  POPC      H13X           26.9923576628        2.2031112634       -3.1189567647  MEMB      57              0.0000000000
      7628        57  POPC      H13Y           25.6746570637        1.2799533081       -3.1650378762  MEMB      57              0.0000000000
      7629        57  POPC      C314           25.0189416053        3.0711283652       -2.2356816275  MEMB      57              0.0000000000
      7630        57  POPC      H14X           25.3477528986        2.7788483327       -1.2111605635  MEMB      57              0.0000000000
      7631        57  POPC      H14Y           24.0030997002        2.7605438822       -2.4720817853  MEMB      57              0.0000000000
      7632        57  POPC      C315           24.9145386745        4.6114496320       -2.4159869119  MEMB      57              0.0000000000
      7633        57  POPC      H15X           25.0555706364        5.1113420925       -3.3954027262  MEMB      57              0.0000000000
      7634        57  POPC      H15Y           25.8716136434        4.5572167884       -2.0275513826  MEMB      57              0.0000000000
      7635        57  POPC      C316           24.3159447584        5.5612535243       -1.3873221887  MEMB      57              0.0000000000
      7636        57  POPC      H16X           23.3273957766        5.8988203231       -1.7422858519  MEMB      57              0.0000000000
      7637        57  POPC      H16Y           24.9665558515        6.4661179521       -1.2600260369  MEMB      57              0.0000000000
      7638        57  POPC      H16Z           24.2593833752        5.0442314205       -0.4099030109  MEMB      57              0.0000000000
      7639        58  POPC      N             -25.3214766062       -3.8334034789      -20.4518198436  MEMB      58              0.0000000000
      7640        58  POPC      C12           -24.0542148684       -4.6830865846      -20.4003115388  MEMB      58              0.0000000000
      7641        58  POPC      H12A          -23.5780024587       -4.6110435667      -21.3722567355  MEMB      58              0.0000000000
      7642        58  POPC      H12B          -24.3282493522       -5.7367974992      -20.2819387298  MEMB      58              0.0000000000
      7643        58  POPC      C13           -25.1268859126       -2.3521375876      -20.3576319738  MEMB      58              0.0000000000
      7644        58  POPC      H13A          -24.6961530710       -1.9126972723      -21.2549033667  MEMB      58              0.0000000000
      7645        58  POPC      H13B          -26.0784844475       -1.8322195112      -20.2524941900  MEMB      58              0.0000000000
      7646        58  POPC      H13C          -24.4877499725       -2.1158189947      -19.5160296570  MEMB      58              0.0000000000
      7647        58  POPC      C14           -25.9894649416       -4.0808286094      -21.7673443996  MEMB      58              0.0000000000
      7648        58  POPC      H14A          -26.0097920425       -5.1293414963      -22.0172255073  MEMB      58              0.0000000000
      7649        58  POPC      H14B          -27.0104818023       -3.6880863511      -21.7650547465  MEMB      58              0.0000000000
      7650        58  POPC      H14C          -25.4554177055       -3.5668509004      -22.5647352363  MEMB      58              0.0000000000
      7651        58  POPC      C15           -26.1756936836       -4.2026316485      -19.2693955400  MEMB      58              0.0000000000
      7652        58  POPC      H15A          -25.6304315940       -3.9384759060      -18.3529287716  MEMB      58              0.0000000000
      7653        58  POPC      H15B          -26.3361028959       -5.2690277073      -19.1794745395  MEMB      58              0.0000000000
      7654        58  POPC      H15C          -27.1221675678       -3.6766485334      -19.2211015878  MEMB      58              0.0000000000
      7655        58  POPC      C11           -22.9773125662       -4.3892973562      -19.3304212834  MEMB      58              0.0000000000
      7656        58  POPC      H11A          -22.5811501862       -3.3540246660      -19.3834777141  MEMB      58              0.0000000000
      7657        58  POPC      H11B          -22.1077873261       -5.0659391288      -19.5087426029  MEMB      58              0.0000000000
      7658        58  POPC      P             -23.5548241950       -6.0531112384      -17.4709427711  MEMB      58              0.0000000000
      7659        58  POPC      O13           -24.2468326518       -6.8655759586      -18.5044427981  MEMB      58              0.0000000000
      7660        58  POPC      O14           -24.1825405330       -5.9592497839      -16.1420711716  MEMB      58              0.0000000000
      7661        58  POPC      O12           -23.5068606979       -4.5765957837      -18.0397144940  MEMB      58              0.0000000000
      7662        58  POPC      O11           -22.0331785577       -6.4747640174      -17.4003770743  MEMB      58              0.0000000000
      7663        58  POPC      C1            -21.1894897627       -5.8334456596      -16.4551759941  MEMB      58              0.0000000000
      7664        58  POPC      HA            -21.6427534647       -4.9364817340      -15.9588118422  MEMB      58              0.0000000000
      7665        58  POPC      HB            -20.2716031612       -5.4803392242      -16.9778155194  MEMB      58              0.0000000000
      7666        58  POPC      C2            -20.7663700079       -6.8317633939      -15.3635085849  MEMB      58              0.0000000000
      7667        58  POPC      HS            -20.1352473109       -7.6142121125      -15.8437364038  MEMB      58              0.0000000000
      7668        58  POPC      O21           -21.8952860938       -7.3914266747      -14.6443053838  MEMB      58              0.0000000000
      7669        58  POPC      C21           -21.7128827982       -8.5475539149      -14.0740706762  MEMB      58              0.0000000000
      7670        58  POPC      O22           -20.7889090220       -9.3181190364      -14.2600286312  MEMB      58              0.0000000000
      7671        58  POPC      C22           -22.8513269771       -8.8021708989      -13.0527905424  MEMB      58              0.0000000000
      7672        58  POPC      H2R           -22.6455751075       -9.7956742661      -12.6004340113  MEMB      58              0.0000000000
      7673        58  POPC      H2S           -23.7460053290       -8.8801412155      -13.6926348031  MEMB      58              0.0000000000
      7674        58  POPC      C3            -19.9366745174       -6.0670758168      -14.3503882013  MEMB      58              0.0000000000
      7675        58  POPC      HX            -19.0137291819       -5.5884566966      -14.7586941159  MEMB      58              0.0000000000
      7676        58  POPC      HY            -19.7338225029       -6.8901261798      -13.6572310037  MEMB      58              0.0000000000
      7677        58  POPC      O31           -20.7844816042       -5.1379556863      -13.7026489877  MEMB      58              0.0000000000
      7678        58  POPC      C31           -20.3595517528       -4.5850954133      -12.6397227620  MEMB      58              0.0000000000
      7679        58  POPC      O32           -19.2147652627       -4.5194772766      -12.2351319060  MEMB      58              0.0000000000
      7680        58  POPC      C32           -21.5533968697       -3.9750598087      -11.9770040680  MEMB      58              0.0000000000
      7681        58  POPC      H2X           -21.2143368399       -2.9875830678      -11.8120902998  MEMB      58              0.0000000000
      7682        58  POPC      H2Y           -21.7243933511       -4.3152058104      -10.9556698283  MEMB      58              0.0000000000
      7683        58  POPC      C23           -23.2125282978       -7.7129059697      -11.9610433027  MEMB      58              0.0000000000
      7684        58  POPC      H3R           -23.9932573682       -8.1418359316      -11.2919122634  MEMB      58              0.0000000000
      7685        58  POPC      H3S           -23.5654128401       -6.7898186125      -12.4549817622  MEMB      58              0.0000000000
      7686        58  POPC      C24           -22.0016352349       -7.3340782094      -11.1225735146  MEMB      58              0.0000000000
      7687        58  POPC      H4R           -21.3455875087       -6.7406567572      -11.7790248936  MEMB      58              0.0000000000
      7688        58  POPC      H4S           -21.7011557438       -8.3656920197      -11.0704504385  MEMB      58              0.0000000000
      7689        58  POPC      C25           -21.9797658336       -6.8176038775       -9.6607290455  MEMB      58              0.0000000000
      7690        58  POPC      H5R           -22.8586806644       -7.2502078114       -9.1560539294  MEMB      58              0.0000000000
      7691        58  POPC      H5S           -22.0696096815       -5.7236704329       -9.7048009277  MEMB      58              0.0000000000
      7692        58  POPC      C26           -20.7124907271       -7.0002258295       -8.7639129040  MEMB      58              0.0000000000
      7693        58  POPC      H6R           -20.4836356350       -6.0750653236       -8.1979506449  MEMB      58              0.0000000000
      7694        58  POPC      H6S           -19.7727695061       -7.1267164116       -9.3217901006  MEMB      58              0.0000000000
      7695        58  POPC      C27           -20.8448974088       -8.1275083431       -7.7328908877  MEMB      58              0.0000000000
      7696        58  POPC      H7R           -19.8340192672       -8.3346888139       -7.2891836829  MEMB      58              0.0000000000
      7697        58  POPC      H7S           -21.2124360540       -9.0551150144       -8.2327765737  MEMB      58              0.0000000000
      7698        58  POPC      C28           -21.8868224385       -7.8692392975       -6.6749492573  MEMB      58              0.0000000000
      7699        58  POPC      H8R           -22.0339080539       -8.8312232467       -6.1251983830  MEMB      58              0.0000000000
      7700        58  POPC      H8S           -22.8577482100       -7.6665825344       -7.1381822316  MEMB      58              0.0000000000
      7701        58  POPC      C29           -21.4354500456       -6.7035968817       -5.8492037640  MEMB      58              0.0000000000
      7702        58  POPC      H91           -21.6966823408       -5.6906464477       -6.1490196038  MEMB      58              0.0000000000
      7703        58  POPC      C210          -20.7169142655       -6.8781631289       -4.7733222640  MEMB      58              0.0000000000
      7704        58  POPC      H101          -20.4724201113       -6.0562176822       -4.0871988660  MEMB      58              0.0000000000
      7705        58  POPC      C211          -20.3749211433       -8.2600468723       -4.4030428969  MEMB      58              0.0000000000
      7706        58  POPC      H11R          -20.4434311576       -9.0796920103       -5.1205532958  MEMB      58              0.0000000000
      7707        58  POPC      H11S          -21.2867364629       -8.5977139395       -3.8914877169  MEMB      58              0.0000000000
      7708        58  POPC      C212          -18.9569900498       -8.3198535598       -3.8160424446  MEMB      58              0.0000000000
      7709        58  POPC      H12R          -18.4569608879       -7.9502682690       -4.7393971302  MEMB      58              0.0000000000
      7710        58  POPC      H12S          -18.6691958096       -9.3642309546       -3.5792888751  MEMB      58              0.0000000000
      7711        58  POPC      C213          -18.4030218125       -7.4919847606       -2.5847411630  MEMB      58              0.0000000000
      7712        58  POPC      H13R          -18.2591078038       -6.4632166673       -2.8950172675  MEMB      58              0.0000000000
      7713        58  POPC      H13S          -17.6508753740       -8.0834266564       -2.3437341301  MEMB      58              0.0000000000
      7714        58  POPC      C214          -18.2572986923       -7.8566436200       -0.9384629646  MEMB      58              0.0000000000
      7715        58  POPC      H14R          -17.5828008169       -8.6189973759       -0.5824770710  MEMB      58              0.0000000000
      7716        58  POPC      H14S          -19.0990944652       -7.9680896790       -0.4006689385  MEMB      58              0.0000000000
      7717        58  POPC      C215          -18.5527248908       -7.0988028898        0.3230008407  MEMB      58              0.0000000000
      7718        58  POPC      H15R          -17.5985314608       -7.4055142935        0.8089409681  MEMB      58              0.0000000000
      7719        58  POPC      H15S          -18.8780257488       -7.2345807185        1.3718724671  MEMB      58              0.0000000000
      7720        58  POPC      C216          -18.8271018122       -5.8236994619       -0.2400114791  MEMB      58              0.0000000000
      7721        58  POPC      H16R          -18.2619163433       -5.4511341836       -1.0569425335  MEMB      58              0.0000000000
      7722        58  POPC      H16S          -18.1750241127       -5.3908565906        0.2495828381  MEMB      58              0.0000000000
      7723        58  POPC      C217          -19.6060037768       -5.3028380850       -1.2479718880  MEMB      58              0.0000000000
      7724        58  POPC      H17R          -20.1385108302       -5.2978000989       -0.2193976963  MEMB      58              0.0000000000
      7725        58  POPC      H17S          -19.7606195620       -5.6830855053       -2.2415902352  MEMB      58              0.0000000000
      7726        58  POPC      C218          -20.3058844699       -4.2337060633       -1.7103332470  MEMB      58              0.0000000000
      7727        58  POPC      H18R          -19.8027073296       -3.5922233612       -1.0879487246  MEMB      58              0.0000000000
      7728        58  POPC      H18S          -21.3479533370       -4.0834597559       -1.4040057135  MEMB      58              0.0000000000
      7729        58  POPC      H18T          -19.6412044303       -3.4943150269       -1.9038181779  MEMB      58              0.0000000000
      7730        58  POPC      C33           -22.6085900686       -3.3990316125      -12.9050906369  MEMB      58              0.0000000000
      7731        58  POPC      H3X           -23.1983879488       -4.2036483810      -13.3561474682  MEMB      58              0.0000000000
      7732        58  POPC      H3Y           -22.0358728811       -2.8795309978      -13.7258916865  MEMB      58              0.0000000000
      7733        58  POPC      C34           -23.4647451139       -2.3385757061      -12.2118842074  MEMB      58              0.0000000000
      7734        58  POPC      H4X           -23.9359322525       -1.7255286327      -13.0119152869  MEMB      58              0.0000000000
      7735        58  POPC      H4Y           -22.8776701646       -1.6244297499      -11.6094880071  MEMB      58              0.0000000000
      7736        58  POPC      C35           -24.5711454931       -2.8564787018      -11.2967216803  MEMB      58              0.0000000000
      7737        58  POPC      H5X           -25.3347444973       -3.2851351214      -11.9777275814  MEMB      58              0.0000000000
      7738        58  POPC      H5Y           -25.0407198103       -2.0083334048      -10.7457958135  MEMB      58              0.0000000000
      7739        58  POPC      C36           -24.1491165034       -3.9029915945      -10.2629486375  MEMB      58              0.0000000000
      7740        58  POPC      H6X           -23.3607869765       -3.4966345523       -9.5896779650  MEMB      58              0.0000000000
      7741        58  POPC      H6Y           -23.7266505518       -4.7810236814      -10.8003708950  MEMB      58              0.0000000000
      7742        58  POPC      C37           -25.3563590424       -4.3544121865       -9.4430360924  MEMB      58              0.0000000000
      7743        58  POPC      H7X           -26.0257264067       -4.9277819804      -10.1252506968  MEMB      58              0.0000000000
      7744        58  POPC      H7Y           -25.9029517288       -3.4562640377       -9.0930045762  MEMB      58              0.0000000000
      7745        58  POPC      C38           -25.0319476483       -5.2574648302       -8.2498572537  MEMB      58              0.0000000000
      7746        58  POPC      H8X           -24.3081543247       -6.0158390869       -8.6004723577  MEMB      58              0.0000000000
      7747        58  POPC      H8Y           -25.9577298703       -5.7896127683       -7.9424165725  MEMB      58              0.0000000000
      7748        58  POPC      C39           -24.4480148999       -4.5634568651       -7.0140778988  MEMB      58              0.0000000000
      7749        58  POPC      H9X           -23.4644447268       -4.1224739176       -7.2886531562  MEMB      58              0.0000000000
      7750        58  POPC      H9Y           -24.2542250541       -5.3464192441       -6.2425768997  MEMB      58              0.0000000000
      7751        58  POPC      C310          -25.3212246310       -3.4654810828       -6.3901006985  MEMB      58              0.0000000000
      7752        58  POPC      H10X          -26.1740813830       -3.9000612573       -5.8224324813  MEMB      58              0.0000000000
      7753        58  POPC      H10Y          -25.7488845949       -2.7848367080       -7.1537011218  MEMB      58              0.0000000000
      7754        58  POPC      C311          -24.4892144355       -2.6069770817       -5.4471197753  MEMB      58              0.0000000000
      7755        58  POPC      H11X          -25.1182640058       -1.7736750035       -5.0728215676  MEMB      58              0.0000000000
      7756        58  POPC      H11Y          -23.6267015764       -2.1773477054       -5.9976926587  MEMB      58              0.0000000000
      7757        58  POPC      C312          -23.9816218961       -3.4113138868       -4.2634046336  MEMB      58              0.0000000000
      7758        58  POPC      H12X          -23.3826554262       -2.7343493066       -3.6380495445  MEMB      58              0.0000000000
      7759        58  POPC      H12Y          -23.3163256937       -4.2412251711       -4.5955389015  MEMB      58              0.0000000000
      7760        58  POPC      C313          -25.1194362933       -3.8676704425       -3.3429618238  MEMB      58              0.0000000000
      7761        58  POPC      H13X          -25.8176881351       -4.5754421258       -3.8277013473  MEMB      58              0.0000000000
      7762        58  POPC      H13Y          -25.6392099934       -2.9614535763       -2.9721021241  MEMB      58              0.0000000000
      7763        58  POPC      C314          -24.5747892635       -4.6191499190       -2.1733539490  MEMB      58              0.0000000000
      7764        58  POPC      H14X          -25.1475314139       -4.6093226444       -1.2303932931  MEMB      58              0.0000000000
      7765        58  POPC      H14Y          -23.6809991424       -3.9682500469       -1.9403373263  MEMB      58              0.0000000000
      7766        58  POPC      C315          -24.3017107457       -6.0835281498       -2.6402360170  MEMB      58              0.0000000000
      7767        58  POPC      H15X          -23.2574204697       -5.8003631117       -2.7545325165  MEMB      58              0.0000000000
      7768        58  POPC      H15Y          -24.3416058417       -6.3700743963       -3.6917917204  MEMB      58              0.0000000000
      7769        58  POPC      C316          -24.8708048609       -7.3741686340       -1.8321097269  MEMB      58              0.0000000000
      7770        58  POPC      H16X          -24.4885706569       -7.8231509774       -0.8758497432  MEMB      58              0.0000000000
      7771        58  POPC      H16Y          -24.0255188505       -8.1339444836       -1.9688897679  MEMB      58              0.0000000000
      7772        58  POPC      H16Z          -25.1174428612       -6.7837298722       -0.9063228604  MEMB      58              0.0000000000
      7773        59  POPC      N              19.5785770259      -11.5482643660      -20.4471805984  MEMB      59              0.0000000000
      7774        59  POPC      C12            20.2628169270      -12.8408749851      -20.6512752498  MEMB      59              0.0000000000
      7775        59  POPC      H12A           21.3064285524      -12.6481513965      -20.8371231098  MEMB      59              0.0000000000
      7776        59  POPC      H12B           19.8062509097      -13.3600814757      -21.4732214453  MEMB      59              0.0000000000
      7777        59  POPC      C13            19.4921785030      -10.8732071911      -21.7582569816  MEMB      59              0.0000000000
      7778        59  POPC      H13A           18.7589226373      -10.0702861618      -21.7523484586  MEMB      59              0.0000000000
      7779        59  POPC      H13B           20.4458944091      -10.4022913459      -21.9787248181  MEMB      59              0.0000000000
      7780        59  POPC      H13C           19.2486414946      -11.5706807502      -22.5497543361  MEMB      59              0.0000000000
      7781        59  POPC      C14            18.2303349937      -11.7927512648      -19.8782143973  MEMB      59              0.0000000000
      7782        59  POPC      H14A           17.6947145406      -10.8591996053      -19.7166084740  MEMB      59              0.0000000000
      7783        59  POPC      H14B           17.6161921526      -12.4039354851      -20.5080439362  MEMB      59              0.0000000000
      7784        59  POPC      H14C           18.3497347586      -12.2294136971      -18.8876305459  MEMB      59              0.0000000000
      7785        59  POPC      C15            20.3306740181      -10.6829155165      -19.4525693256  MEMB      59              0.0000000000
      7786        59  POPC      H15A           20.3884970831      -11.2152576734      -18.5008138709  MEMB      59              0.0000000000
      7787        59  POPC      H15B           19.8110587284       -9.7415276216      -19.2895172695  MEMB      59              0.0000000000
      7788        59  POPC      H15C           21.3564525769      -10.5045400373      -19.7472139288  MEMB      59              0.0000000000
      7789        59  POPC      C11            20.2309624352      -13.7876603993      -19.5036652012  MEMB      59              0.0000000000
      7790        59  POPC      H11A           20.5348485534      -14.7743693860      -19.9863232730  MEMB      59              0.0000000000
      7791        59  POPC      H11B           19.2070346154      -14.0012038487      -19.0978141700  MEMB      59              0.0000000000
      7792        59  POPC      P              21.7525037718      -14.5582110162      -17.7180484407  MEMB      59              0.0000000000
      7793        59  POPC      O13            23.0057691941      -15.0045242019      -18.3648677787  MEMB      59              0.0000000000
      7794        59  POPC      O14            20.5420901840      -15.3501715403      -17.8332635295  MEMB      59              0.0000000000
      7795        59  POPC      O12            21.1574954291      -13.3021744881      -18.4728213446  MEMB      59              0.0000000000
      7796        59  POPC      O11            22.0108732267      -14.1656666696      -16.2006693935  MEMB      59              0.0000000000
      7797        59  POPC      C1             22.8354532063      -13.0125815064      -15.9899199164  MEMB      59              0.0000000000
      7798        59  POPC      HA             23.0463989350      -12.4427689418      -16.9329860452  MEMB      59              0.0000000000
      7799        59  POPC      HB             23.8235207283      -13.3196585099      -15.5874326310  MEMB      59              0.0000000000
      7800        59  POPC      C2             22.1614497757      -11.9709419283      -15.0640701136  MEMB      59              0.0000000000
      7801        59  POPC      HS             22.7770537459      -11.0499111912      -15.1577119456  MEMB      59              0.0000000000
      7802        59  POPC      O21            22.1671059557      -12.4507749695      -13.7008791591  MEMB      59              0.0000000000
      7803        59  POPC      C21            21.8325984518      -11.5465061450      -12.8124882150  MEMB      59              0.0000000000
      7804        59  POPC      O22            21.4703650034      -10.4090493567      -13.0396069607  MEMB      59              0.0000000000
      7805        59  POPC      C22            21.9642116532      -12.0883339067      -11.4083240727  MEMB      59              0.0000000000
      7806        59  POPC      H2R            21.9527334630      -13.1940073349      -11.4431545436  MEMB      59              0.0000000000
      7807        59  POPC      H2S            21.0750918319      -11.7215277577      -10.8529893884  MEMB      59              0.0000000000
      7808        59  POPC      C3             20.7178584727      -11.6559026783      -15.5527809450  MEMB      59              0.0000000000
      7809        59  POPC      HX             20.7918555960      -11.4905469636      -16.6548329009  MEMB      59              0.0000000000
      7810        59  POPC      HY             20.3208533287      -10.7287259216      -15.0879709294  MEMB      59              0.0000000000
      7811        59  POPC      O31            19.8512305827      -12.7521134076      -15.2467385166  MEMB      59              0.0000000000
      7812        59  POPC      C31            18.6714056685      -12.6088139458      -15.7663576188  MEMB      59              0.0000000000
      7813        59  POPC      O32            18.2668998832      -11.6519711364      -16.4011462660  MEMB      59              0.0000000000
      7814        59  POPC      C32            17.9407914463      -13.9265987373      -15.5830452687  MEMB      59              0.0000000000
      7815        59  POPC      H2X            18.6641709338      -14.7188399703      -15.7705866373  MEMB      59              0.0000000000
      7816        59  POPC      H2Y            17.1783861505      -13.9501221128      -16.4009382968  MEMB      59              0.0000000000
      7817        59  POPC      C23            23.2403364247      -11.5414863565      -10.7427200112  MEMB      59              0.0000000000
      7818        59  POPC      H3R            23.1724777508      -10.4273331166      -10.7039333492  MEMB      59              0.0000000000
      7819        59  POPC      H3S            24.1419909694      -11.7973990099      -11.3483228505  MEMB      59              0.0000000000
      7820        59  POPC      C24            23.4279588159      -12.0125785636       -9.2989271905  MEMB      59              0.0000000000
      7821        59  POPC      H4R            22.4817079523      -11.8985326320       -8.7282940063  MEMB      59              0.0000000000
      7822        59  POPC      H4S            24.1656989195      -11.3056967039       -8.8517451439  MEMB      59              0.0000000000
      7823        59  POPC      C25            23.9891187654      -13.4374789420       -9.1458569191  MEMB      59              0.0000000000
      7824        59  POPC      H5R            24.7222120144      -13.4053303032       -8.3051803628  MEMB      59              0.0000000000
      7825        59  POPC      H5S            24.5406908138      -13.7543583993      -10.0592237793  MEMB      59              0.0000000000
      7826        59  POPC      C26            22.9217490274      -14.4977646065       -8.8304821566  MEMB      59              0.0000000000
      7827        59  POPC      H6R            22.2975550696      -14.6307578174       -9.7401167980  MEMB      59              0.0000000000
      7828        59  POPC      H6S            22.2658948892      -14.1222003356       -8.0140412927  MEMB      59              0.0000000000
      7829        59  POPC      C27            23.5420127686      -15.8346632880       -8.3774179806  MEMB      59              0.0000000000
      7830        59  POPC      H7R            24.1249472553      -15.6508078625       -7.4491886508  MEMB      59              0.0000000000
      7831        59  POPC      H7S            24.2543935471      -16.1824819926       -9.1551512611  MEMB      59              0.0000000000
      7832        59  POPC      C28            22.5691133108      -17.0012808064       -8.1004497924  MEMB      59              0.0000000000
      7833        59  POPC      H8R            23.1229216549      -17.7576299259       -7.4961107765  MEMB      59              0.0000000000
      7834        59  POPC      H8S            22.3489978527      -17.4652626764       -9.0875051471  MEMB      59              0.0000000000
      7835        59  POPC      C29            21.2312954667      -16.6567980379       -7.5186144308  MEMB      59              0.0000000000
      7836        59  POPC      H91            20.6713740039      -15.9704629626       -8.1689902534  MEMB      59              0.0000000000
      7837        59  POPC      C210           20.6636657200      -17.0460189734       -6.3607912302  MEMB      59              0.0000000000
      7838        59  POPC      H101           19.6186049538      -16.7390963521       -6.2021424520  MEMB      59              0.0000000000
      7839        59  POPC      C211           21.2157455138      -17.9575331952       -5.2840851063  MEMB      59              0.0000000000
      7840        59  POPC      H11R           22.1099250910      -18.5148026435       -5.6358811460  MEMB      59              0.0000000000
      7841        59  POPC      H11S           20.4606153525      -18.7302457005       -5.0116091730  MEMB      59              0.0000000000
      7842        59  POPC      C212           21.6280646873      -17.2202920047       -3.9851655086  MEMB      59              0.0000000000
      7843        59  POPC      H12R           22.4261414570      -16.4765824616       -4.2066222119  MEMB      59              0.0000000000
      7844        59  POPC      H12S           22.0600012991      -17.9781240292       -3.2934266509  MEMB      59              0.0000000000
      7845        59  POPC      C213           20.4615123643      -16.4884465048       -3.2992661934  MEMB      59              0.0000000000
      7846        59  POPC      H13R           19.6364199749      -17.2130669144       -3.1278881892  MEMB      59              0.0000000000
      7847        59  POPC      H13S           20.0863585937      -15.7247722605       -4.0184916321  MEMB      59              0.0000000000
      7848        59  POPC      C214           20.8312004272      -15.7442314370       -1.9959251911  MEMB      59              0.0000000000
      7849        59  POPC      H14R           20.0444145469      -14.9814999567       -1.7923520909  MEMB      59              0.0000000000
      7850        59  POPC      H14S           21.8000895553      -15.2137482619       -2.1025484414  MEMB      59              0.0000000000
      7851        59  POPC      C215           20.9959660786      -16.6393418916       -0.7752705233  MEMB      59              0.0000000000
      7852        59  POPC      H15R           21.7838943444      -17.4005880882       -0.9036321189  MEMB      59              0.0000000000
      7853        59  POPC      H15S           20.2252956351      -17.3217503813       -0.6703799784  MEMB      59              0.0000000000
      7854        59  POPC      C216           20.9924211030      -15.9456870366        0.5937820884  MEMB      59              0.0000000000
      7855        59  POPC      H16R           21.8305093310      -15.2731203489        0.4834363888  MEMB      59              0.0000000000
      7856        59  POPC      H16S           21.2181738951      -16.7789399001        1.2847353028  MEMB      59              0.0000000000
      7857        59  POPC      C217           19.8374447981      -14.9894785698        1.0227680938  MEMB      59              0.0000000000
      7858        59  POPC      H17R           18.8745508700      -15.5363233521        1.0133607417  MEMB      59              0.0000000000
      7859        59  POPC      H17S           19.8383170116      -14.2081997094        0.2331496754  MEMB      59              0.0000000000
      7860        59  POPC      C218           19.9034518815      -14.1536904677        2.3308284660  MEMB      59              0.0000000000
      7861        59  POPC      H18R           20.7396047487      -13.4334465577        2.2955898947  MEMB      59              0.0000000000
      7862        59  POPC      H18S           19.9442247195      -14.6319326914        3.3243223308  MEMB      59              0.0000000000
      7863        59  POPC      H18T           18.9948303278      -13.5990344583        2.4577912701  MEMB      59              0.0000000000
      7864        59  POPC      C33            17.3038852524      -14.1707357255      -14.1803661980  MEMB      59              0.0000000000
      7865        59  POPC      H3X            16.8445850938      -15.0871768103      -13.7995504658  MEMB      59              0.0000000000
      7866        59  POPC      H3Y            16.3200254336      -14.0162756789      -14.5819448085  MEMB      59              0.0000000000
      7867        59  POPC      C34            17.9293831246      -13.5497319882      -12.9141108354  MEMB      59              0.0000000000
      7868        59  POPC      H4X            18.6392955769      -12.7325046367      -13.1386298502  MEMB      59              0.0000000000
      7869        59  POPC      H4Y            18.5178853040      -14.4253072611      -12.5490997375  MEMB      59              0.0000000000
      7870        59  POPC      C35            17.0754318833      -13.1837947698      -11.6778790453  MEMB      59              0.0000000000
      7871        59  POPC      H5X            16.2166004732      -13.8835705883      -11.5767165357  MEMB      59              0.0000000000
      7872        59  POPC      H5Y            16.6027215023      -12.1876024020      -11.6385363734  MEMB      59              0.0000000000
      7873        59  POPC      C36            17.9728293916      -13.1054474098      -10.4519712216  MEMB      59              0.0000000000
      7874        59  POPC      H6X            18.7724475411      -12.3444102921      -10.5567160166  MEMB      59              0.0000000000
      7875        59  POPC      H6Y            18.3709280455      -14.1277040582      -10.2857020807  MEMB      59              0.0000000000
      7876        59  POPC      C37            17.1673794526      -12.7391627290       -9.2485842437  MEMB      59              0.0000000000
      7877        59  POPC      H7X            16.2579179546      -13.2927127510       -9.5561459260  MEMB      59              0.0000000000
      7878        59  POPC      H7Y            16.8725002038      -11.6610655956       -9.1928728104  MEMB      59              0.0000000000
      7879        59  POPC      C38            17.7613797576      -13.2781941723       -7.9415237222  MEMB      59              0.0000000000
      7880        59  POPC      H8X            18.2079778732      -14.2769674631       -8.0977876756  MEMB      59              0.0000000000
      7881        59  POPC      H8Y            17.0102457178      -13.5038587828       -7.1684956036  MEMB      59              0.0000000000
      7882        59  POPC      C39            18.8392985322      -12.3399834021       -7.4120053059  MEMB      59              0.0000000000
      7883        59  POPC      H9X            18.5115907741      -11.2803682999       -7.3002778873  MEMB      59              0.0000000000
      7884        59  POPC      H9Y            19.6307410139      -12.3624889084       -8.1959093895  MEMB      59              0.0000000000
      7885        59  POPC      C310           19.4444161139      -12.8129214481       -6.0974460902  MEMB      59              0.0000000000
      7886        59  POPC      H10X           19.5977381175      -13.9161665935       -6.1342319589  MEMB      59              0.0000000000
      7887        59  POPC      H10Y           18.7698068577      -12.5789164877       -5.2451059486  MEMB      59              0.0000000000
      7888        59  POPC      C311           20.7952426226      -12.1515290101       -5.8943920664  MEMB      59              0.0000000000
      7889        59  POPC      H11X           20.7133832837      -11.0440152713       -5.9646441980  MEMB      59              0.0000000000
      7890        59  POPC      H11Y           21.4618679030      -12.4844861421       -6.7237687064  MEMB      59              0.0000000000
      7891        59  POPC      C312           21.4225378552      -12.5229393962       -4.5654265123  MEMB      59              0.0000000000
      7892        59  POPC      H12X           21.5922940902      -13.6247781957       -4.5191729602  MEMB      59              0.0000000000
      7893        59  POPC      H12Y           20.8133987026      -12.2092719660       -3.6922538427  MEMB      59              0.0000000000
      7894        59  POPC      C313           22.7387474252      -11.8349278189       -4.4478145465  MEMB      59              0.0000000000
      7895        59  POPC      H13X           22.9516717618      -11.7658907614       -3.3616209693  MEMB      59              0.0000000000
      7896        59  POPC      H13Y           22.7398274100      -10.7856457326       -4.8290838226  MEMB      59              0.0000000000
      7897        59  POPC      C314           23.7709469310      -12.6251600739       -5.2225763593  MEMB      59              0.0000000000
      7898        59  POPC      H14X           23.5088812540      -12.8783954875       -6.2590883650  MEMB      59              0.0000000000
      7899        59  POPC      H14Y           24.0596367018      -13.5463297163       -4.6432696856  MEMB      59              0.0000000000
      7900        59  POPC      C315           24.9526097327      -11.7856950145       -5.3889659578  MEMB      59              0.0000000000
      7901        59  POPC      H15X           25.0021767031      -10.9058107398       -6.0535153921  MEMB      59              0.0000000000
      7902        59  POPC      H15Y           25.7220401261      -12.5322074274       -5.6432723460  MEMB      59              0.0000000000
      7903        59  POPC      C316           25.2087031077      -11.3713587451       -4.0522192644  MEMB      59              0.0000000000
      7904        59  POPC      H16X           25.4348761376      -12.3515896999       -3.5565904173  MEMB      59              0.0000000000
      7905        59  POPC      H16Y           24.5666583939      -10.7790775355       -3.3811191799  MEMB      59              0.0000000000
      7906        59  POPC      H16Z           26.0968133362      -10.7499175079       -4.0543387578  MEMB      59              0.0000000000
      7907        60  POPC      N              11.2488236809      -21.4895631741      -20.7193428578  MEMB      60              0.0000000000
      7908        60  POPC      C12            10.3931271457      -20.4513056908      -20.0488621523  MEMB      60              0.0000000000
      7909        60  POPC      H12A            9.5588641061      -20.1669241826      -20.6663542924  MEMB      60              0.0000000000
      7910        60  POPC      H12B           11.0150609470      -19.5597224818      -19.9630152491  MEMB      60              0.0000000000
      7911        60  POPC      C13            11.8883458714      -20.7450074813      -21.7817803590  MEMB      60              0.0000000000
      7912        60  POPC      H13A           12.6955076769      -20.0926735620      -21.4196940677  MEMB      60              0.0000000000
      7913        60  POPC      H13B           12.2580319322      -21.4033985366      -22.5599705984  MEMB      60              0.0000000000
      7914        60  POPC      H13C           11.2184654961      -20.0429656347      -22.2633377616  MEMB      60              0.0000000000
      7915        60  POPC      C14            12.4267246577      -21.9130574021      -19.9097381705  MEMB      60              0.0000000000
      7916        60  POPC      H14A           13.1068622670      -21.0583177633      -19.8314322876  MEMB      60              0.0000000000
      7917        60  POPC      H14B           12.1518876316      -22.2140028227      -18.9017288189  MEMB      60              0.0000000000
      7918        60  POPC      H14C           12.9266434340      -22.7450860784      -20.3802858161  MEMB      60              0.0000000000
      7919        60  POPC      C15            10.4031671032      -22.6461356347      -21.1413598694  MEMB      60              0.0000000000
      7920        60  POPC      H15A            9.8394740128      -23.0316250622      -20.2844249408  MEMB      60              0.0000000000
      7921        60  POPC      H15B           10.9917511174      -23.4452524869      -21.5516695292  MEMB      60              0.0000000000
      7922        60  POPC      H15C            9.6688769032      -22.3636844448      -21.8883460087  MEMB      60              0.0000000000
      7923        60  POPC      C11             9.8275971471      -20.6796390081      -18.6456168259  MEMB      60              0.0000000000
      7924        60  POPC      H11A            9.0934568671      -19.8505601546      -18.5071707617  MEMB      60              0.0000000000
      7925        60  POPC      H11B           10.6635771888      -20.4922733612      -17.9228512850  MEMB      60              0.0000000000
      7926        60  POPC      P               9.7032935547      -22.7440899115      -17.1793055363  MEMB      60              0.0000000000
      7927        60  POPC      O13            11.1439679161      -22.9982900836      -17.3549299275  MEMB      60              0.0000000000
      7928        60  POPC      O14             8.7888135523      -23.8607258873      -16.8899911212  MEMB      60              0.0000000000
      7929        60  POPC      O12             9.2134602688      -21.9513033459      -18.4753665109  MEMB      60              0.0000000000
      7930        60  POPC      O11             9.6192792137      -21.6185596565      -16.0569388238  MEMB      60              0.0000000000
      7931        60  POPC      C1              8.3417862041      -21.2319211725      -15.6093263110  MEMB      60              0.0000000000
      7932        60  POPC      HA              7.6754838962      -22.1000888834      -15.6918037342  MEMB      60              0.0000000000
      7933        60  POPC      HB              7.9510927948      -20.3939001018      -16.2437137969  MEMB      60              0.0000000000
      7934        60  POPC      C2              8.2651159722      -20.8002832149      -14.1168167319  MEMB      60              0.0000000000
      7935        60  POPC      HS              7.5170955844      -20.0822749725      -13.9449533724  MEMB      60              0.0000000000
      7936        60  POPC      O21             9.4285180128      -20.1153797918      -13.7217966938  MEMB      60              0.0000000000
      7937        60  POPC      C21             9.4956076837      -18.8827693496      -14.2657829601  MEMB      60              0.0000000000
      7938        60  POPC      O22             8.7751305272      -18.3551630796      -15.0775969141  MEMB      60              0.0000000000
      7939        60  POPC      C22            10.7668826501      -18.3032160716      -13.9267198442  MEMB      60              0.0000000000
      7940        60  POPC      H2R            11.1204688519      -18.9432056364      -13.0881905595  MEMB      60              0.0000000000
      7941        60  POPC      H2S            10.9103304186      -17.2964577838      -13.5530047375  MEMB      60              0.0000000000
      7942        60  POPC      C3              7.9708435377      -21.9949651966      -13.1323155003  MEMB      60              0.0000000000
      7943        60  POPC      HX              8.6001517660      -22.8585966503      -13.4332231055  MEMB      60              0.0000000000
      7944        60  POPC      HY              6.9342797200      -22.3746312452      -13.2483240360  MEMB      60              0.0000000000
      7945        60  POPC      O31             8.1770660530      -21.7019920143      -11.7389290355  MEMB      60              0.0000000000
      7946        60  POPC      C31             7.4252799680      -20.8855802908      -11.0327910666  MEMB      60              0.0000000000
      7947        60  POPC      O32             6.5623671905      -20.1135714375      -11.3535757383  MEMB      60              0.0000000000
      7948        60  POPC      C32             7.8543516813      -20.8823566667       -9.5991740945  MEMB      60              0.0000000000
      7949        60  POPC      H2X             7.6638725292      -19.8136909986       -9.3145374640  MEMB      60              0.0000000000
      7950        60  POPC      H2Y             8.9016249481      -21.1761134026       -9.4967986833  MEMB      60              0.0000000000
      7951        60  POPC      C23            11.4391964626      -18.3131347214      -15.2907694010  MEMB      60              0.0000000000
      7952        60  POPC      H3R            11.0203607203      -17.6544458593      -16.0848837509  MEMB      60              0.0000000000
      7953        60  POPC      H3S            11.1431490901      -19.2280998603      -15.9187983527  MEMB      60              0.0000000000
      7954        60  POPC      C24            13.0575644604      -18.1874024982      -14.8893623014  MEMB      60              0.0000000000
      7955        60  POPC      H4R            13.1636614978      -17.2525998516      -14.6956996552  MEMB      60              0.0000000000
      7956        60  POPC      H4S            12.9021799288      -18.1158388281      -15.9931817938  MEMB      60              0.0000000000
      7957        60  POPC      C25            14.5918034159      -19.4855117130      -14.3172910644  MEMB      60              0.0000000000
      7958        60  POPC      H5R            14.0970574027      -18.7877560749      -13.6837274296  MEMB      60              0.0000000000
      7959        60  POPC      H5S            15.5603620339      -19.3256802059      -14.2993554466  MEMB      60              0.0000000000
      7960        60  POPC      C26            14.7889521790      -21.4970398727      -14.6884045821  MEMB      60              0.0000000000
      7961        60  POPC      H6R            14.4915304970      -21.8386435920      -15.7174722610  MEMB      60              0.0000000000
      7962        60  POPC      H6S            13.8568936188      -22.1115744664      -14.9379979643  MEMB      60              0.0000000000
      7963        60  POPC      C27            14.5831553440      -22.9769538710      -13.9168051957  MEMB      60              0.0000000000
      7964        60  POPC      H7R            15.6560067240      -23.0756489505      -14.1092542293  MEMB      60              0.0000000000
      7965        60  POPC      H7S            14.1036943247      -23.8218156721      -14.5293267243  MEMB      60              0.0000000000
      7966        60  POPC      C28            14.1144355089      -23.2555394970      -12.3731751520  MEMB      60              0.0000000000
      7967        60  POPC      H8R            14.8002390522      -22.4592607751      -12.1766065554  MEMB      60              0.0000000000
      7968        60  POPC      H8S            14.7661041166      -23.9558370128      -11.8428220813  MEMB      60              0.0000000000
      7969        60  POPC      C29            12.6744078605      -23.0440593538      -11.6792224349  MEMB      60              0.0000000000
      7970        60  POPC      H91            11.8674490280      -22.9963975921      -12.4382985998  MEMB      60              0.0000000000
      7971        60  POPC      C210           12.2284895678      -22.2751394602      -10.6217999286  MEMB      60              0.0000000000
      7972        60  POPC      H101           11.2508085369      -21.7460135057      -10.6975738238  MEMB      60              0.0000000000
      7973        60  POPC      C211           12.9758467960      -21.3685334679       -9.7269461641  MEMB      60              0.0000000000
      7974        60  POPC      H11R           12.9034590328      -20.3625986302      -10.1471948947  MEMB      60              0.0000000000
      7975        60  POPC      H11S           13.9555625851      -21.7854713485       -9.4535818812  MEMB      60              0.0000000000
      7976        60  POPC      C212           12.5178151960      -20.9419483851       -8.3975179620  MEMB      60              0.0000000000
      7977        60  POPC      H12R           11.8421327188      -20.0766311128       -8.5485575774  MEMB      60              0.0000000000
      7978        60  POPC      H12S           13.2963248144      -20.5522436343       -7.6988106850  MEMB      60              0.0000000000
      7979        60  POPC      C213           12.0979509632      -22.2086221462       -7.7924446598  MEMB      60              0.0000000000
      7980        60  POPC      H13R           12.6505474922      -23.0662947435       -8.2192815362  MEMB      60              0.0000000000
      7981        60  POPC      H13S           11.0153403933      -22.1851636277       -8.0577638926  MEMB      60              0.0000000000
      7982        60  POPC      C214           12.4338772318      -22.1913041017       -6.3409688781  MEMB      60              0.0000000000
      7983        60  POPC      H14R           12.0886172721      -21.2022011336       -6.3574133349  MEMB      60              0.0000000000
      7984        60  POPC      H14S           13.4455287126      -22.0007983638       -5.9416972280  MEMB      60              0.0000000000
      7985        60  POPC      C215           11.4736670474      -23.0983924744       -5.6187081813  MEMB      60              0.0000000000
      7986        60  POPC      H15R           11.7436771644      -24.0852723456       -6.0439889037  MEMB      60              0.0000000000
      7987        60  POPC      H15S           10.4502728843      -22.8167576907       -5.9620767624  MEMB      60              0.0000000000
      7988        60  POPC      C216           11.4830780544      -23.1664197612       -4.0891693970  MEMB      60              0.0000000000
      7989        60  POPC      H16R           10.8094809438      -24.0175514554       -3.8484283495  MEMB      60              0.0000000000
      7990        60  POPC      H16S           11.0464083018      -22.2721654797       -3.5910696633  MEMB      60              0.0000000000
      7991        60  POPC      C217           12.8663135296      -23.4248150511       -3.5021226192  MEMB      60              0.0000000000
      7992        60  POPC      H17R           13.4256238542      -22.4609031422       -3.5003521705  MEMB      60              0.0000000000
      7993        60  POPC      H17S           13.4026874710      -24.1359983407       -4.1717685459  MEMB      60              0.0000000000
      7994        60  POPC      C218           12.8065238770      -24.0165998912       -2.0929168629  MEMB      60              0.0000000000
      7995        60  POPC      H18R           12.3773272927      -23.2887979683       -1.3724739381  MEMB      60              0.0000000000
      7996        60  POPC      H18S           13.8215207125      -24.2990346633       -1.7423169782  MEMB      60              0.0000000000
      7997        60  POPC      H18T           12.1732054467      -24.9316281785       -2.0871467612  MEMB      60              0.0000000000
      7998        60  POPC      C33             6.9391515878      -21.7584953493       -8.7583385267  MEMB      60              0.0000000000
      7999        60  POPC      H3X             6.9689598445      -22.8450890412       -8.9526841103  MEMB      60              0.0000000000
      8000        60  POPC      H3Y             6.0049951504      -21.4234120491       -9.1177217119  MEMB      60              0.0000000000
      8001        60  POPC      C34             6.7810519236      -21.3266150346       -7.3239869055  MEMB      60              0.0000000000
      8002        60  POPC      H4X             5.8807731148      -21.5942090310       -6.7462798544  MEMB      60              0.0000000000
      8003        60  POPC      H4Y             6.7390474521      -20.2193115282       -7.3833776888  MEMB      60              0.0000000000
      8004        60  POPC      C35             7.8531477348      -21.9984239860       -6.5435913737  MEMB      60              0.0000000000
      8005        60  POPC      H5X             8.7638572618      -21.9785977062       -7.1831533235  MEMB      60              0.0000000000
      8006        60  POPC      H5Y             7.5786351905      -23.0633054289       -6.3591862220  MEMB      60              0.0000000000
      8007        60  POPC      C36             8.0376780762      -21.2265464041       -5.2682539126  MEMB      60              0.0000000000
      8008        60  POPC      H6X             8.9345782866      -21.6754191944       -4.7977974474  MEMB      60              0.0000000000
      8009        60  POPC      H6Y             7.2064148701      -21.3942136456       -4.5544787808  MEMB      60              0.0000000000
      8010        60  POPC      C37             8.1080087718      -19.7144985868       -5.5832564779  MEMB      60              0.0000000000
      8011        60  POPC      H7X             7.1020004662      -19.2616642782       -5.7053882933  MEMB      60              0.0000000000
      8012        60  POPC      H7Y             8.6648818440      -19.5534630523       -6.5320681492  MEMB      60              0.0000000000
      8013        60  POPC      C38             8.7050995909      -18.9088392021       -4.4885812414  MEMB      60              0.0000000000
      8014        60  POPC      H8X             9.1692230744      -17.9316309311       -4.7286890650  MEMB      60              0.0000000000
      8015        60  POPC      H8Y             9.3978066137      -19.5301757411       -3.8957497067  MEMB      60              0.0000000000
      8016        60  POPC      C39             7.9182935210      -18.8976389240       -3.3023391477  MEMB      60              0.0000000000
      8017        60  POPC      H9X             7.8558464040      -19.9842871509       -2.9757527575  MEMB      60              0.0000000000
      8018        60  POPC      H9Y             6.9617496334      -18.5464675791       -3.5729428430  MEMB      60              0.0000000000
      8019        60  POPC      C310            8.5168949245      -17.8725692534       -2.3667836614  MEMB      60              0.0000000000
      8020        60  POPC      H10X            8.5308012549      -16.8273630724       -2.6741214627  MEMB      60              0.0000000000
      8021        60  POPC      H10Y            9.5075142193      -17.9881157184       -2.7227406135  MEMB      60              0.0000000000
      8022        60  POPC      C311            8.1962370863      -17.9835428263       -0.8741101853  MEMB      60              0.0000000000
      8023        60  POPC      H11X            7.7453430234      -16.9939678220       -0.7097548759  MEMB      60              0.0000000000
      8024        60  POPC      H11Y            8.8253726622      -17.8183000016        0.0114176972  MEMB      60              0.0000000000
      8025        60  POPC      C312            7.3264155038      -19.1623740899       -0.6592490932  MEMB      60              0.0000000000
      8026        60  POPC      H12X            6.8967381265      -19.5104883675       -1.5270484902  MEMB      60              0.0000000000
      8027        60  POPC      H12Y            6.4399340461      -18.9182033178       -0.1719952599  MEMB      60              0.0000000000
      8028        60  POPC      C313            7.6390858122      -20.4975545713       -0.2495191556  MEMB      60              0.0000000000
      8029        60  POPC      H13X            8.2501026174      -20.2368250399        0.5554808366  MEMB      60              0.0000000000
      8030        60  POPC      H13Y            8.1691066068      -21.0400387897       -1.0650880730  MEMB      60              0.0000000000
      8031        60  POPC      C314            6.3276004006      -21.0313287843        0.2991156342  MEMB      60              0.0000000000
      8032        60  POPC      H14X            6.2857087421      -21.9320336705        0.7747722299  MEMB      60              0.0000000000
      8033        60  POPC      H14Y            5.5369321267      -21.0771888031       -0.4011930432  MEMB      60              0.0000000000
      8034        60  POPC      C315            5.8072293499      -20.5164795801        1.5263479546  MEMB      60              0.0000000000
      8035        60  POPC      H15X            5.3751851254      -19.6260919025        1.0577632052  MEMB      60              0.0000000000
      8036        60  POPC      H15Y            6.6336619909      -20.4862750282        2.2430691068  MEMB      60              0.0000000000
      8037        60  POPC      C316            4.6023292156      -20.9642444102        2.2495539624  MEMB      60              0.0000000000
      8038        60  POPC      H16X            4.8748252113      -21.8038825067        2.9289736959  MEMB      60              0.0000000000
      8039        60  POPC      H16Y            3.8366425994      -21.0224858953        1.4578986118  MEMB      60              0.0000000000
      8040        60  POPC      H16Z            4.0269429123      -20.3092134436        2.9113329872  MEMB      60              0.0000000000
      8041        61  POPC      N             -11.9017902595       23.1375111127      -20.6999707652  MEMB      61              0.0000000000
      8042        61  POPC      C12           -12.8389633051       23.3262949083      -19.4594955636  MEMB      61              0.0000000000
      8043        61  POPC      H12A          -13.6351085888       24.0261263696      -19.6277810803  MEMB      61              0.0000000000
      8044        61  POPC      H12B          -12.2868777104       23.7019738522      -18.5927478746  MEMB      61              0.0000000000
      8045        61  POPC      C13           -10.8119293605       22.2002777453      -20.3228564126  MEMB      61              0.0000000000
      8046        61  POPC      H13A          -10.2039040425       21.9904038586      -21.1951108462  MEMB      61              0.0000000000
      8047        61  POPC      H13B          -10.2355092133       22.6250082723      -19.5049317496  MEMB      61              0.0000000000
      8048        61  POPC      H13C          -11.2695615666       21.2850086720      -19.9502365840  MEMB      61              0.0000000000
      8049        61  POPC      C14           -12.6607012847       22.4982450080      -21.8240925658  MEMB      61              0.0000000000
      8050        61  POPC      H14A          -13.2352691644       21.6485396788      -21.4636405256  MEMB      61              0.0000000000
      8051        61  POPC      H14B          -13.3351161436       23.1939513258      -22.3060558697  MEMB      61              0.0000000000
      8052        61  POPC      H14C          -11.9894746217       22.1147483470      -22.5969417031  MEMB      61              0.0000000000
      8053        61  POPC      C15           -11.1841045924       24.3771777656      -21.1858890335  MEMB      61              0.0000000000
      8054        61  POPC      H15A          -10.6072210767       24.1848574131      -22.0892699874  MEMB      61              0.0000000000
      8055        61  POPC      H15B          -10.5774880952       24.8072729535      -20.4053176105  MEMB      61              0.0000000000
      8056        61  POPC      H15C          -11.8628922083       25.1501746129      -21.5308075587  MEMB      61              0.0000000000
      8057        61  POPC      C11           -13.7186023024       22.1944428506      -18.9268538238  MEMB      61              0.0000000000
      8058        61  POPC      H11A          -14.1692512672       21.5409446066      -19.7093092022  MEMB      61              0.0000000000
      8059        61  POPC      H11B          -14.5600301107       22.6830239944      -18.3636426186  MEMB      61              0.0000000000
      8060        61  POPC      P             -13.5083302339       20.2907016235      -17.2616776857  MEMB      61              0.0000000000
      8061        61  POPC      O13           -14.2016768128       19.4112533810      -18.2278292799  MEMB      61              0.0000000000
      8062        61  POPC      O14           -14.2258159244       20.7902814133      -16.0679497833  MEMB      61              0.0000000000
      8063        61  POPC      O12           -12.8884715269       21.4996556946      -18.0418665833  MEMB      61              0.0000000000
      8064        61  POPC      O11           -12.1291573222       19.6557076769      -16.8460568282  MEMB      61              0.0000000000
      8065        61  POPC      C1            -11.0179821029       19.5311771058      -17.7568367378  MEMB      61              0.0000000000
      8066        61  POPC      HA            -11.0523849014       20.2083300465      -18.6260763699  MEMB      61              0.0000000000
      8067        61  POPC      HB            -11.0239852758       18.4859759296      -18.1370621472  MEMB      61              0.0000000000
      8068        61  POPC      C2             -9.6434162300       19.7377832440      -17.0777920070  MEMB      61              0.0000000000
      8069        61  POPC      HS             -8.8555219584       19.2230119633      -17.6603444042  MEMB      61              0.0000000000
      8070        61  POPC      O21            -9.8134935853       19.0301556351      -15.8783094699  MEMB      61              0.0000000000
      8071        61  POPC      C21            -9.0933634547       19.2716558469      -14.8847319131  MEMB      61              0.0000000000
      8072        61  POPC      O22            -8.0221742243       19.8624434686      -14.8248682314  MEMB      61              0.0000000000
      8073        61  POPC      C22            -9.7681114761       18.5302551083      -13.7616008347  MEMB      61              0.0000000000
      8074        61  POPC      H2R            -9.3543897643       19.0048640048      -12.8810235690  MEMB      61              0.0000000000
      8075        61  POPC      H2S            -9.5457371759       17.4483568481      -13.8590238119  MEMB      61              0.0000000000
      8076        61  POPC      C3             -9.1937189251       21.2346480259      -16.8674913723  MEMB      61              0.0000000000
      8077        61  POPC      HX             -9.1836610089       21.7345709114      -17.8541660643  MEMB      61              0.0000000000
      8078        61  POPC      HY             -8.1221169316       21.2521986213      -16.5605523294  MEMB      61              0.0000000000
      8079        61  POPC      O31            -9.9597170195       21.9251513264      -15.8563594133  MEMB      61              0.0000000000
      8080        61  POPC      C31           -10.7083243621       22.9405890818      -16.2546608971  MEMB      61              0.0000000000
      8081        61  POPC      O32           -10.7171639059       23.3936769105      -17.3934690531  MEMB      61              0.0000000000
      8082        61  POPC      C32           -11.4195003510       23.5809488182      -15.0538516983  MEMB      61              0.0000000000
      8083        61  POPC      H2X           -12.2510064229       24.1994492317      -15.4527069078  MEMB      61              0.0000000000
      8084        61  POPC      H2Y           -10.7080415656       24.2504041839      -14.5270242916  MEMB      61              0.0000000000
      8085        61  POPC      C23           -11.2179137900       18.7957050189      -13.4261530102  MEMB      61              0.0000000000
      8086        61  POPC      H3R           -11.8487326607       18.3469869797      -14.2189283676  MEMB      61              0.0000000000
      8087        61  POPC      H3S           -11.3037648338       19.9033255459      -13.4092374849  MEMB      61              0.0000000000
      8088        61  POPC      C24           -11.5758804248       18.2921821846      -12.0208993517  MEMB      61              0.0000000000
      8089        61  POPC      H4R           -12.3358142948       18.9772196792      -11.5980399355  MEMB      61              0.0000000000
      8090        61  POPC      H4S           -10.7929087305       18.2851289678      -11.2927397444  MEMB      61              0.0000000000
      8091        61  POPC      C25           -12.0835339245       16.8729394612      -12.0073698399  MEMB      61              0.0000000000
      8092        61  POPC      H5R           -11.6099047686       16.2022306897      -12.7515890258  MEMB      61              0.0000000000
      8093        61  POPC      H5S           -13.0785867336       17.1933901730      -12.3042980747  MEMB      61              0.0000000000
      8094        61  POPC      C26           -12.2146663591       16.1881454699      -10.6623529181  MEMB      61              0.0000000000
      8095        61  POPC      H6R           -11.3034007744       16.2935174096      -10.0515769065  MEMB      61              0.0000000000
      8096        61  POPC      H6S           -12.3589321571       15.0915121529      -10.7552963174  MEMB      61              0.0000000000
      8097        61  POPC      C27           -13.4307546919       16.7019639477       -9.9489934517  MEMB      61              0.0000000000
      8098        61  POPC      H7R           -14.3810829060       16.2815759272      -10.3666606336  MEMB      61              0.0000000000
      8099        61  POPC      H7S           -13.5210252613       17.7962013232       -9.8474560183  MEMB      61              0.0000000000
      8100        61  POPC      C28           -13.4611632191       16.0415191861       -8.4812544874  MEMB      61              0.0000000000
      8101        61  POPC      H8R           -13.3501356609       15.0317323253       -8.7150260746  MEMB      61              0.0000000000
      8102        61  POPC      H8S           -14.4727949190       16.4425132402       -8.4196822887  MEMB      61              0.0000000000
      8103        61  POPC      C29           -12.2603909630       16.8105757014       -7.7804928429  MEMB      61              0.0000000000
      8104        61  POPC      H91           -11.2887803898       16.5453228018       -8.0392278112  MEMB      61              0.0000000000
      8105        61  POPC      C210          -12.1969396349       17.1375369393       -6.2426720754  MEMB      61              0.0000000000
      8106        61  POPC      H101          -11.3532215675       17.3974410777       -5.9102955807  MEMB      61              0.0000000000
      8107        61  POPC      C211          -13.4429713726       17.7467301300       -5.4555713897  MEMB      61              0.0000000000
      8108        61  POPC      H11R          -12.7697704664       17.1466465689       -4.5895976353  MEMB      61              0.0000000000
      8109        61  POPC      H11S          -14.1620858613       17.0450072880       -5.4917297210  MEMB      61              0.0000000000
      8110        61  POPC      C212          -14.7158512610       18.3024554786       -4.8650573479  MEMB      61              0.0000000000
      8111        61  POPC      H12R          -14.4243193048       18.7413401352       -3.9090979723  MEMB      61              0.0000000000
      8112        61  POPC      H12S          -15.6168975457       17.7074800198       -4.5089635437  MEMB      61              0.0000000000
      8113        61  POPC      C213          -15.2423574057       19.0965874928       -5.9935241687  MEMB      61              0.0000000000
      8114        61  POPC      H13R          -15.9604609898       18.5068377901       -6.6083801464  MEMB      61              0.0000000000
      8115        61  POPC      H13S          -14.3495136176       19.3150333123       -6.6176776780  MEMB      61              0.0000000000
      8116        61  POPC      C214          -15.8001491888       20.3163710590       -5.3402082018  MEMB      61              0.0000000000
      8117        61  POPC      H14R          -16.5941845256       20.0211296914       -4.6128222725  MEMB      61              0.0000000000
      8118        61  POPC      H14S          -16.2379966242       20.9398881514       -6.1409137449  MEMB      61              0.0000000000
      8119        61  POPC      C215          -14.6669160267       21.0691294807       -4.6310513046  MEMB      61              0.0000000000
      8120        61  POPC      H15R          -13.8302231443       21.1649195410       -5.3580776510  MEMB      61              0.0000000000
      8121        61  POPC      H15S          -14.2427551537       20.5700351277       -3.7318723180  MEMB      61              0.0000000000
      8122        61  POPC      C216          -15.1669267352       22.4106012941       -4.1516988707  MEMB      61              0.0000000000
      8123        61  POPC      H16R          -15.8290285076       22.8035782251       -4.9553254220  MEMB      61              0.0000000000
      8124        61  POPC      H16S          -14.3014222710       23.0956976940       -4.0390644479  MEMB      61              0.0000000000
      8125        61  POPC      C217          -15.9287246482       22.2601647395       -2.8288299147  MEMB      61              0.0000000000
      8126        61  POPC      H17R          -16.5235684328       21.3179928420       -2.8409787432  MEMB      61              0.0000000000
      8127        61  POPC      H17S          -16.6566014197       23.0952804087       -2.7442017593  MEMB      61              0.0000000000
      8128        61  POPC      C218          -15.0436836764       22.2650939008       -1.5787888853  MEMB      61              0.0000000000
      8129        61  POPC      H18R          -14.5932862265       23.2710645976       -1.4385316808  MEMB      61              0.0000000000
      8130        61  POPC      H18S          -14.2226409991       21.5180660449       -1.6381098001  MEMB      61              0.0000000000
      8131        61  POPC      H18T          -15.6697640697       22.0263917579       -0.6924347592  MEMB      61              0.0000000000
      8132        61  POPC      C33           -11.9261595280       22.5379754219      -14.0376228148  MEMB      61              0.0000000000
      8133        61  POPC      H3X           -11.0446386464       21.9829056087      -13.6437047641  MEMB      61              0.0000000000
      8134        61  POPC      H3Y           -12.5970581903       21.8059193325      -14.5428843380  MEMB      61              0.0000000000
      8135        61  POPC      C34           -12.6607426856       23.1664067292      -12.8478611712  MEMB      61              0.0000000000
      8136        61  POPC      H4X           -13.3813165219       23.9316784067      -13.2108855944  MEMB      61              0.0000000000
      8137        61  POPC      H4Y           -11.8981301370       23.6715761744      -12.2140463159  MEMB      61              0.0000000000
      8138        61  POPC      C35           -13.4250170721       22.1307097810      -12.0048701357  MEMB      61              0.0000000000
      8139        61  POPC      H5X           -12.7105227012       21.3100011034      -11.7857952297  MEMB      61              0.0000000000
      8140        61  POPC      H5Y           -14.2539297475       21.7024703964      -12.6131686424  MEMB      61              0.0000000000
      8141        61  POPC      C36           -13.9974615588       22.7293842008      -10.6984190401  MEMB      61              0.0000000000
      8142        61  POPC      H6X           -14.8336635070       23.4113337216      -10.9637730350  MEMB      61              0.0000000000
      8143        61  POPC      H6Y           -13.1976834325       23.3342138591      -10.2142433583  MEMB      61              0.0000000000
      8144        61  POPC      C37           -14.5151248750       21.7271188227       -9.6576864838  MEMB      61              0.0000000000
      8145        61  POPC      H7X           -15.4168094157       21.1849264170      -10.0054514192  MEMB      61              0.0000000000
      8146        61  POPC      H7Y           -14.7486618092       22.2319019655       -8.6877950407  MEMB      61              0.0000000000
      8147        61  POPC      C38           -13.5240387359       20.6592891581       -9.3242474619  MEMB      61              0.0000000000
      8148        61  POPC      H8X           -13.1396388198       20.1121137783      -10.2027033920  MEMB      61              0.0000000000
      8149        61  POPC      H8Y           -14.0391691812       19.9039875460       -8.6818459420  MEMB      61              0.0000000000
      8150        61  POPC      C39           -12.3799931384       21.1875544751       -8.5268080897  MEMB      61              0.0000000000
      8151        61  POPC      H9X           -12.6936896160       21.6281201391       -7.5515312313  MEMB      61              0.0000000000
      8152        61  POPC      H9Y           -11.6275615501       21.8382937812       -9.0281830069  MEMB      61              0.0000000000
      8153        61  POPC      C310          -11.7383651664       19.9425373837       -8.1682854795  MEMB      61              0.0000000000
      8154        61  POPC      H10X          -11.3010326488       19.4265050100       -9.0700717987  MEMB      61              0.0000000000
      8155        61  POPC      H10Y          -12.4448199890       19.2071859861       -7.7967320633  MEMB      61              0.0000000000
      8156        61  POPC      C311          -10.7757153613       20.2727002962       -7.0904584526  MEMB      61              0.0000000000
      8157        61  POPC      H11X          -10.0653858132       20.9133500191       -7.6704832417  MEMB      61              0.0000000000
      8158        61  POPC      H11Y          -10.5064126252       19.2532177368       -6.7396203982  MEMB      61              0.0000000000
      8159        61  POPC      C312          -10.5130156149       21.3045853687       -6.0208844200  MEMB      61              0.0000000000
      8160        61  POPC      H12X          -10.7491760822       20.7287463563       -5.1020132594  MEMB      61              0.0000000000
      8161        61  POPC      H12Y          -10.5968454318       22.3743230923       -6.3212834332  MEMB      61              0.0000000000
      8162        61  POPC      C313           -9.0603842488       21.6360594013       -5.5652235373  MEMB      61              0.0000000000
      8163        61  POPC      H13X           -8.3721197451       22.2051764933       -6.2111222793  MEMB      61              0.0000000000
      8164        61  POPC      H13Y           -8.4931174051       20.7741437354       -5.2676264571  MEMB      61              0.0000000000
      8165        61  POPC      C314           -9.0373011619       22.0354736433       -4.1632161596  MEMB      61              0.0000000000
      8166        61  POPC      H14X           -9.8343985083       22.7786800953       -4.0157367410  MEMB      61              0.0000000000
      8167        61  POPC      H14Y           -8.0274384276       22.4871962761       -3.9724351540  MEMB      61              0.0000000000
      8168        61  POPC      C315           -9.3111788194       20.8896405887       -3.2155796881  MEMB      61              0.0000000000
      8169        61  POPC      H15X           -8.5859385693       20.0617670030       -3.1185299918  MEMB      61              0.0000000000
      8170        61  POPC      H15Y          -10.1543611884       20.1896080412       -3.3229819107  MEMB      61              0.0000000000
      8171        61  POPC      C316           -9.2707544866       21.7600269464       -2.0157100085  MEMB      61              0.0000000000
      8172        61  POPC      H16X           -8.3242326880       22.3336428698       -1.8643334628  MEMB      61              0.0000000000
      8173        61  POPC      H16Y           -9.2856451366       20.9727268187       -1.3199976254  MEMB      61              0.0000000000
      8174        61  POPC      H16Z          -10.1493095001       22.3405538979       -1.7366024843  MEMB      61              0.0000000000
      8175        62  POPC      N             -18.7345405540      -20.4682929954      -20.8441625964  MEMB      62              0.0000000000
      8176        62  POPC      C12           -18.0971199377      -20.1636575018      -19.4891616405  MEMB      62              0.0000000000
      8177        62  POPC      H12A          -17.7978689338      -19.1217679745      -19.4864993362  MEMB      62              0.0000000000
      8178        62  POPC      H12B          -17.2426559587      -20.8002710509      -19.3454838829  MEMB      62              0.0000000000
      8179        62  POPC      C13           -19.2945829064      -21.8566758167      -20.8463916426  MEMB      62              0.0000000000
      8180        62  POPC      H13A          -19.8490985449      -22.0261379502      -21.7584994226  MEMB      62              0.0000000000
      8181        62  POPC      H13B          -18.5294329883      -22.5943707383      -20.6527797759  MEMB      62              0.0000000000
      8182        62  POPC      H13C          -20.0307952052      -21.9429118007      -20.0410774225  MEMB      62              0.0000000000
      8183        62  POPC      C14           -19.8585678785      -19.5234906451      -21.1864882638  MEMB      62              0.0000000000
      8184        62  POPC      H14A          -20.6264802276      -19.5457687244      -20.3998208426  MEMB      62              0.0000000000
      8185        62  POPC      H14B          -19.4890008963      -18.5170234273      -21.2542603279  MEMB      62              0.0000000000
      8186        62  POPC      H14C          -20.3455235238      -19.7848034133      -22.1231116379  MEMB      62              0.0000000000
      8187        62  POPC      C15           -17.6577052580      -20.2350251093      -21.8390409515  MEMB      62              0.0000000000
      8188        62  POPC      H15A          -17.8449406116      -19.3020956938      -22.3694419721  MEMB      62              0.0000000000
      8189        62  POPC      H15B          -17.5808470664      -21.0582054503      -22.5208598881  MEMB      62              0.0000000000
      8190        62  POPC      H15C          -16.6843150638      -20.1071370247      -21.3767515552  MEMB      62              0.0000000000
      8191        62  POPC      C11           -18.8775488250      -20.3921314894      -18.2146246687  MEMB      62              0.0000000000
      8192        62  POPC      H11A          -18.4176991285      -19.8458254919      -17.3630901979  MEMB      62              0.0000000000
      8193        62  POPC      H11B          -18.9813182260      -21.4809207837      -17.9923803824  MEMB      62              0.0000000000
      8194        62  POPC      P             -21.2516350937      -20.0947999954      -17.5010281242  MEMB      62              0.0000000000
      8195        62  POPC      O13           -21.2438676126      -21.4994140363      -17.0284534616  MEMB      62              0.0000000000
      8196        62  POPC      O14           -22.2690776254      -19.7146642564      -18.4820303064  MEMB      62              0.0000000000
      8197        62  POPC      O12           -20.0878047074      -19.8103576944      -18.4416258246  MEMB      62              0.0000000000
      8198        62  POPC      O11           -21.0391625182      -19.0949795675      -16.2605319380  MEMB      62              0.0000000000
      8199        62  POPC      C1            -20.8933430902      -17.6742784813      -16.4395217512  MEMB      62              0.0000000000
      8200        62  POPC      HA            -21.5423166870      -17.3443668908      -17.2821753383  MEMB      62              0.0000000000
      8201        62  POPC      HB            -19.8372474165      -17.4270259857      -16.6743643938  MEMB      62              0.0000000000
      8202        62  POPC      C2            -21.2645413426      -16.7613895988      -15.2015919826  MEMB      62              0.0000000000
      8203        62  POPC      HS            -21.1886096885      -15.7011720442      -15.5298156496  MEMB      62              0.0000000000
      8204        62  POPC      O21           -20.3741552333      -17.0145042392      -14.0900065016  MEMB      62              0.0000000000
      8205        62  POPC      C21           -20.4859832178      -16.2778081868      -13.0064500553  MEMB      62              0.0000000000
      8206        62  POPC      O22           -21.1206826176      -15.2491981144      -12.8672688758  MEMB      62              0.0000000000
      8207        62  POPC      C22           -19.6087529557      -16.9400300556      -11.9413087624  MEMB      62              0.0000000000
      8208        62  POPC      H2R           -18.5566807112      -16.8560180545      -12.2840688713  MEMB      62              0.0000000000
      8209        62  POPC      H2S           -19.8795707075      -18.0162808337      -11.8928785400  MEMB      62              0.0000000000
      8210        62  POPC      C3            -22.7074269355      -16.9784590236      -14.7777363320  MEMB      62              0.0000000000
      8211        62  POPC      HX            -23.3624396216      -16.8551627657      -15.6892555709  MEMB      62              0.0000000000
      8212        62  POPC      HY            -23.0293457267      -16.1897750098      -14.0505030957  MEMB      62              0.0000000000
      8213        62  POPC      O31           -22.7562874054      -18.3135482508      -14.2009001569  MEMB      62              0.0000000000
      8214        62  POPC      C31           -24.0149652706      -18.4934409803      -13.9232001469  MEMB      62              0.0000000000
      8215        62  POPC      O32           -24.8031989940      -17.5933808108      -13.8470634912  MEMB      62              0.0000000000
      8216        62  POPC      C32           -24.3981918336      -19.9073142980      -13.7823973136  MEMB      62              0.0000000000
      8217        62  POPC      H2X           -23.5501729761      -20.5563008429      -14.1009179143  MEMB      62              0.0000000000
      8218        62  POPC      H2Y           -25.3164645967      -20.0632337829      -14.4010719731  MEMB      62              0.0000000000
      8219        62  POPC      C23           -19.7814723743      -16.2455959689      -10.5789180986  MEMB      62              0.0000000000
      8220        62  POPC      H3R           -20.8356198202      -16.3533840010      -10.2535173860  MEMB      62              0.0000000000
      8221        62  POPC      H3S           -19.5834158605      -15.1588744036      -10.7284890811  MEMB      62              0.0000000000
      8222        62  POPC      C24           -18.8337220862      -16.7540941488       -9.4800977802  MEMB      62              0.0000000000
      8223        62  POPC      H4R           -17.8263057778      -16.9009351415       -9.9281225485  MEMB      62              0.0000000000
      8224        62  POPC      H4S           -19.1802382494      -17.7429016878       -9.1056758073  MEMB      62              0.0000000000
      8225        62  POPC      C25           -18.7315329747      -15.7716233354       -8.2971779847  MEMB      62              0.0000000000
      8226        62  POPC      H5R           -19.7431528941      -15.6154278889       -7.8602667450  MEMB      62              0.0000000000
      8227        62  POPC      H5S           -18.3854660376      -14.7821886427       -8.6731495093  MEMB      62              0.0000000000
      8228        62  POPC      C26           -17.7574839718      -16.2011334490       -7.1821044278  MEMB      62              0.0000000000
      8229        62  POPC      H6R           -17.8031958091      -15.4396284505       -6.3691427053  MEMB      62              0.0000000000
      8230        62  POPC      H6S           -16.7218673026      -16.1788455968       -7.5885528260  MEMB      62              0.0000000000
      8231        62  POPC      C27           -18.0197437394      -17.5894863768       -6.5625647872  MEMB      62              0.0000000000
      8232        62  POPC      H7R           -17.3077335945      -17.7481259344       -5.7203630772  MEMB      62              0.0000000000
      8233        62  POPC      H7S           -17.7858855121      -18.3747164101       -7.3156540428  MEMB      62              0.0000000000
      8234        62  POPC      C28           -19.4645990866      -17.8057781960       -6.0621325819  MEMB      62              0.0000000000
      8235        62  POPC      H8R           -19.5218647848      -18.7993579062       -5.5621757342  MEMB      62              0.0000000000
      8236        62  POPC      H8S           -20.1325687348      -17.8576591495       -6.9481542946  MEMB      62              0.0000000000
      8237        62  POPC      C29           -19.9529091770      -16.7199783460       -5.1422017029  MEMB      62              0.0000000000
      8238        62  POPC      H91           -20.5670871660      -15.9445850562       -5.6247397747  MEMB      62              0.0000000000
      8239        62  POPC      C210          -19.6625842052      -16.6132740951       -3.8376685035  MEMB      62              0.0000000000
      8240        62  POPC      H101          -20.0261082722      -15.7312304402       -3.2841741885  MEMB      62              0.0000000000
      8241        62  POPC      C211          -18.7894736677      -17.5677172036       -3.0578153191  MEMB      62              0.0000000000
      8242        62  POPC      H11R          -18.6085760908      -18.5185373450       -3.6044997975  MEMB      62              0.0000000000
      8243        62  POPC      H11S          -19.2914114375      -17.8660557868       -2.1085479137  MEMB      62              0.0000000000
      8244        62  POPC      C212          -17.3968995563      -16.9637308075       -2.7663243835  MEMB      62              0.0000000000
      8245        62  POPC      H12R          -16.8261060550      -16.8230647764       -3.7028106306  MEMB      62              0.0000000000
      8246        62  POPC      H12S          -16.8336231823      -17.7224900114       -2.1698318664  MEMB      62              0.0000000000
      8247        62  POPC      C213          -17.4454202306      -15.6204917992       -2.0124638278  MEMB      62              0.0000000000
      8248        62  POPC      H13R          -17.8328023099      -14.7791194861       -2.6098844401  MEMB      62              0.0000000000
      8249        62  POPC      H13S          -16.4304086797      -15.3844961998       -1.6148911630  MEMB      62              0.0000000000
      8250        62  POPC      C214          -18.3785518569      -15.7336486356       -0.8430089059  MEMB      62              0.0000000000
      8251        62  POPC      H14R          -18.0760710969      -16.7440925689       -0.6116367123  MEMB      62              0.0000000000
      8252        62  POPC      H14S          -19.4532606539      -15.8572361789       -1.0693923934  MEMB      62              0.0000000000
      8253        62  POPC      C215          -18.0214942262      -14.8660439959        0.3614586787  MEMB      62              0.0000000000
      8254        62  POPC      H15R          -17.0135488849      -15.1024753678        0.7406130004  MEMB      62              0.0000000000
      8255        62  POPC      H15S          -18.7297546253      -15.0815445033        1.2006759142  MEMB      62              0.0000000000
      8256        62  POPC      C216          -18.2928552704      -13.4711046464        0.3250890183  MEMB      62              0.0000000000
      8257        62  POPC      H16R          -17.9215278756      -13.2276545392       -0.6698409453  MEMB      62              0.0000000000
      8258        62  POPC      H16S          -17.6562509782      -12.9009384874        1.0268084882  MEMB      62              0.0000000000
      8259        62  POPC      C217          -19.7800600365      -13.4735098633        0.7375381900  MEMB      62              0.0000000000
      8260        62  POPC      H17R          -20.0082354225      -12.5074020047        1.2247961112  MEMB      62              0.0000000000
      8261        62  POPC      H17S          -20.0316130044      -13.8678312069        1.7217901965  MEMB      62              0.0000000000
      8262        62  POPC      C218          -20.7360326736      -13.8244087167       -0.4264485146  MEMB      62              0.0000000000
      8263        62  POPC      H18R          -20.4008568815      -13.7145747533       -1.4642755381  MEMB      62              0.0000000000
      8264        62  POPC      H18S          -21.4640367290      -13.0693344340       -0.2940806755  MEMB      62              0.0000000000
      8265        62  POPC      H18T          -21.3473550491      -14.7164311906       -0.4617465737  MEMB      62              0.0000000000
      8266        62  POPC      C33           -25.0273360332      -20.0967760645      -12.4689529463  MEMB      62              0.0000000000
      8267        62  POPC      H3X           -25.4544351620      -21.0904796116      -12.3363866586  MEMB      62              0.0000000000
      8268        62  POPC      H3Y           -25.8961468203      -19.4165639544      -12.4080644622  MEMB      62              0.0000000000
      8269        62  POPC      C34           -23.9790136747      -19.8919858372      -11.4541930474  MEMB      62              0.0000000000
      8270        62  POPC      H4X           -23.6332853474      -18.8420263944      -11.5159243000  MEMB      62              0.0000000000
      8271        62  POPC      H4Y           -23.1050105868      -20.5342508154      -11.7227195942  MEMB      62              0.0000000000
      8272        62  POPC      C35           -24.5369998885      -20.1610534681      -10.0858247844  MEMB      62              0.0000000000
      8273        62  POPC      H5X           -24.9999446080      -21.1442541213       -9.9285273221  MEMB      62              0.0000000000
      8274        62  POPC      H5Y           -25.3544579154      -19.4571873441       -9.8459018300  MEMB      62              0.0000000000
      8275        62  POPC      C36           -23.4237097112      -20.0849504056       -9.1198637745  MEMB      62              0.0000000000
      8276        62  POPC      H6X           -23.1284196974      -19.0278252969       -9.2201455874  MEMB      62              0.0000000000
      8277        62  POPC      H6Y           -22.6022717375      -20.7279655648       -9.5032028715  MEMB      62              0.0000000000
      8278        62  POPC      C37           -23.8625659267      -20.4953024279       -7.7288333081  MEMB      62              0.0000000000
      8279        62  POPC      H7X           -24.4193572758      -21.4550523689       -7.7536131348  MEMB      62              0.0000000000
      8280        62  POPC      H7Y           -24.5396331093      -19.7304458554       -7.3010711335  MEMB      62              0.0000000000
      8281        62  POPC      C38           -22.6893976054      -20.7345011483       -6.8148574761  MEMB      62              0.0000000000
      8282        62  POPC      H8X           -22.1910034217      -19.7608141543       -6.6198203003  MEMB      62              0.0000000000
      8283        62  POPC      H8Y           -21.9710841817      -21.3895208601       -7.3569865812  MEMB      62              0.0000000000
      8284        62  POPC      C39           -23.1217854439      -21.4457972846       -5.5346727281  MEMB      62              0.0000000000
      8285        62  POPC      H9X           -23.2334212084      -22.5289123487       -5.7658891970  MEMB      62              0.0000000000
      8286        62  POPC      H9Y           -24.1154761141      -21.0950206384       -5.1719776877  MEMB      62              0.0000000000
      8287        62  POPC      C310          -22.0790078990      -21.2654076498       -4.4442442045  MEMB      62              0.0000000000
      8288        62  POPC      H10X          -21.0625939017      -21.1979464248       -4.8865188188  MEMB      62              0.0000000000
      8289        62  POPC      H10Y          -22.0900131547      -22.2023799216       -3.8493201529  MEMB      62              0.0000000000
      8290        62  POPC      C311          -22.3402525451      -19.9862978216       -3.6284467053  MEMB      62              0.0000000000
      8291        62  POPC      H11X          -23.3717342509      -20.0231060259       -3.1968543492  MEMB      62              0.0000000000
      8292        62  POPC      H11Y          -22.2275732786      -19.0965068705       -4.2678936444  MEMB      62              0.0000000000
      8293        62  POPC      C312          -21.4250044761      -19.8483896786       -2.4529473307  MEMB      62              0.0000000000
      8294        62  POPC      H12X          -21.5011192966      -18.8782321169       -1.8992193029  MEMB      62              0.0000000000
      8295        62  POPC      H12Y          -20.3570595739      -20.0135616337       -2.7236397030  MEMB      62              0.0000000000
      8296        62  POPC      C313          -21.9143133134      -20.9659723083       -1.6080761478  MEMB      62              0.0000000000
      8297        62  POPC      H13X          -21.7588482485      -21.9365188109       -2.0640258466  MEMB      62              0.0000000000
      8298        62  POPC      H13Y          -22.9971965617      -20.8578949272       -1.3005410161  MEMB      62              0.0000000000
      8299        62  POPC      C314          -21.0908458606      -20.9852408098       -0.4436889640  MEMB      62              0.0000000000
      8300        62  POPC      H14X          -21.4201692429      -21.6183323601        0.4046291233  MEMB      62              0.0000000000
      8301        62  POPC      H14Y          -21.8094544974      -20.2497348242       -0.0543918585  MEMB      62              0.0000000000
      8302        62  POPC      C315          -19.4696820888      -20.9819971369       -0.5795899662  MEMB      62              0.0000000000
      8303        62  POPC      H15X          -19.1453100488      -20.0258271404       -1.0258903112  MEMB      62              0.0000000000
      8304        62  POPC      H15Y          -19.1473255446      -21.7836019841       -1.2499617611  MEMB      62              0.0000000000
      8305        62  POPC      C316          -18.3828547639      -21.4539721359        0.4652365441  MEMB      62              0.0000000000
      8306        62  POPC      H16X          -17.3341489261      -21.5652300104        0.1864004261  MEMB      62              0.0000000000
      8307        62  POPC      H16Y          -18.6156007277      -21.7617818077        1.5184324925  MEMB      62              0.0000000000
      8308        62  POPC      H16Z          -18.1543847524      -20.4540487397        0.5931834044  MEMB      62              0.0000000000
      8309        63  POPC      N             -21.2158342265       19.3859578584      -19.3058832884  MEMB      63              0.0000000000
      8310        63  POPC      C12           -22.6934288585       19.1425177339      -19.0675998479  MEMB      63              0.0000000000
      8311        63  POPC      H12A          -23.2346369554       20.0551492514      -19.2734384435  MEMB      63              0.0000000000
      8312        63  POPC      H12B          -22.8749209486       18.8931541622      -18.0161853397  MEMB      63              0.0000000000
      8313        63  POPC      C13           -20.4177129790       18.2780686716      -18.7171118879  MEMB      63              0.0000000000
      8314        63  POPC      H13A          -20.3229256619       18.3540816243      -17.6333838300  MEMB      63              0.0000000000
      8315        63  POPC      H13B          -20.8305913524       17.2866413135      -18.9101692278  MEMB      63              0.0000000000
      8316        63  POPC      H13C          -19.3695804049       18.2732785993      -19.0413035068  MEMB      63              0.0000000000
      8317        63  POPC      C14           -20.8357158604       19.4809038607      -20.7475736856  MEMB      63              0.0000000000
      8318        63  POPC      H14A          -19.7652751605       19.6473575941      -20.7963508516  MEMB      63              0.0000000000
      8319        63  POPC      H14B          -21.1037755126       18.5557058670      -21.2462357969  MEMB      63              0.0000000000
      8320        63  POPC      H14C          -21.3498688594       20.2990014853      -21.2303864749  MEMB      63              0.0000000000
      8321        63  POPC      C15           -20.8589468876       20.6896284481      -18.7024266402  MEMB      63              0.0000000000
      8322        63  POPC      H15A          -19.8132972248       20.7151445748      -18.4371852793  MEMB      63              0.0000000000
      8323        63  POPC      H15B          -21.4440386792       20.8927205776      -17.8096680460  MEMB      63              0.0000000000
      8324        63  POPC      H15C          -21.0794572320       21.4714747316      -19.4086447879  MEMB      63              0.0000000000
      8325        63  POPC      C11           -23.3994794733       18.0502984910      -19.8753595307  MEMB      63              0.0000000000
      8326        63  POPC      H11A          -23.1940530659       18.1824827038      -20.9479721622  MEMB      63              0.0000000000
      8327        63  POPC      H11B          -24.4854506935       18.2084212425      -19.6687783443  MEMB      63              0.0000000000
      8328        63  POPC      P             -23.5768224843       15.8786451785      -18.3960252904  MEMB      63              0.0000000000
      8329        63  POPC      O13           -22.4949058393       14.9626086843      -17.9762379596  MEMB      63              0.0000000000
      8330        63  POPC      O14           -24.9171842674       15.3111086461      -18.6776917880  MEMB      63              0.0000000000
      8331        63  POPC      O12           -22.9842542042       16.7394573532      -19.5771508008  MEMB      63              0.0000000000
      8332        63  POPC      O11           -23.8159660691       16.9574472561      -17.2817015292  MEMB      63              0.0000000000
      8333        63  POPC      C1            -25.0342432667       16.8856248280      -16.5330298082  MEMB      63              0.0000000000
      8334        63  POPC      HA            -25.3787458866       15.8327671909      -16.3430772264  MEMB      63              0.0000000000
      8335        63  POPC      HB            -25.8444862718       17.4315418896      -17.0619596866  MEMB      63              0.0000000000
      8336        63  POPC      C2            -24.7845507273       17.5466123831      -15.1808801646  MEMB      63              0.0000000000
      8337        63  POPC      HS            -24.4496006282       18.5951724131      -15.3405126497  MEMB      63              0.0000000000
      8338        63  POPC      O21           -23.7996046027       16.7967032010      -14.5118957209  MEMB      63              0.0000000000
      8339        63  POPC      C21           -22.5971050062       17.2173073333      -14.7055433343  MEMB      63              0.0000000000
      8340        63  POPC      O22           -22.1840227287       18.2149458469      -15.2655996085  MEMB      63              0.0000000000
      8341        63  POPC      C22           -21.7421453149       16.1875581906      -14.1489794338  MEMB      63              0.0000000000
      8342        63  POPC      H2R           -20.8680210719       16.2618037838      -14.7901868460  MEMB      63              0.0000000000
      8343        63  POPC      H2S           -22.2625611393       15.1967188981      -14.2250581596  MEMB      63              0.0000000000
      8344        63  POPC      C3            -26.0182987339       17.5826156550      -14.2809074660  MEMB      63              0.0000000000
      8345        63  POPC      HX            -26.4479171348       16.5520174642      -14.2225058885  MEMB      63              0.0000000000
      8346        63  POPC      HY            -26.7496994037       18.2562448499      -14.7684483428  MEMB      63              0.0000000000
      8347        63  POPC      O31           -25.6325311927       18.1433239850      -13.0136229105  MEMB      63              0.0000000000
      8348        63  POPC      C31           -26.0377964872       17.5284958466      -11.9322932244  MEMB      63              0.0000000000
      8349        63  POPC      O32           -26.7487267718       16.5397046760      -11.8842669312  MEMB      63              0.0000000000
      8350        63  POPC      C32           -25.5029301194       18.3163039490      -10.7329095754  MEMB      63              0.0000000000
      8351        63  POPC      H2X           -26.1953914909       18.1587240697       -9.8843256805  MEMB      63              0.0000000000
      8352        63  POPC      H2Y           -25.5043461041       19.4006563338      -10.9811683866  MEMB      63              0.0000000000
      8353        63  POPC      C23           -21.2226198151       16.4167420627      -12.7698348891  MEMB      63              0.0000000000
      8354        63  POPC      H3R           -22.0323691805       16.7938740262      -12.1108522171  MEMB      63              0.0000000000
      8355        63  POPC      H3S           -20.3293646800       17.0848898036      -12.7177911875  MEMB      63              0.0000000000
      8356        63  POPC      C24           -20.8639879740       15.0777158667      -12.2484234143  MEMB      63              0.0000000000
      8357        63  POPC      H4R           -19.7474705913       15.0498962152      -12.2684966870  MEMB      63              0.0000000000
      8358        63  POPC      H4S           -21.1671578894       14.1721281207      -12.8166655792  MEMB      63              0.0000000000
      8359        63  POPC      C25           -21.5205467207       15.0234699933      -10.8837306934  MEMB      63              0.0000000000
      8360        63  POPC      H5R           -21.3540479514       15.8227993272      -10.1824109059  MEMB      63              0.0000000000
      8361        63  POPC      H5S           -20.8069046742       14.4078514063      -10.5213053668  MEMB      63              0.0000000000
      8362        63  POPC      C26           -22.5038097975       13.9859939136      -10.4626645552  MEMB      63              0.0000000000
      8363        63  POPC      H6R           -22.4251592929       13.0996016645      -11.1288502819  MEMB      63              0.0000000000
      8364        63  POPC      H6S           -23.4056932000       14.5906450105      -10.6378134528  MEMB      63              0.0000000000
      8365        63  POPC      C27           -22.3104351754       13.5380414845       -8.9896206123  MEMB      63              0.0000000000
      8366        63  POPC      H7R           -21.9944268800       14.3685673614       -8.3059554043  MEMB      63              0.0000000000
      8367        63  POPC      H7S           -21.5529585794       12.7248213372       -8.8762005288  MEMB      63              0.0000000000
      8368        63  POPC      C28           -23.5845800578       12.9350631404       -8.4886659414  MEMB      63              0.0000000000
      8369        63  POPC      H8R           -23.3590992709       12.4883460834       -7.5053151544  MEMB      63              0.0000000000
      8370        63  POPC      H8S           -23.8364296042       12.1395152718       -9.2287884507  MEMB      63              0.0000000000
      8371        63  POPC      C29           -24.5115395238       14.1198551091       -8.4871350367  MEMB      63              0.0000000000
      8372        63  POPC      H91           -24.9337668242       14.3375283453       -9.4770699185  MEMB      63              0.0000000000
      8373        63  POPC      C210          -24.9561238766       14.8354886014       -7.4521991076  MEMB      63              0.0000000000
      8374        63  POPC      H101          -25.7209760860       15.5975216771       -7.6374675859  MEMB      63              0.0000000000
      8375        63  POPC      C211          -24.6582716264       14.6177582076       -5.9929648108  MEMB      63              0.0000000000
      8376        63  POPC      H11R          -24.3668222706       13.5718848766       -5.7330447216  MEMB      63              0.0000000000
      8377        63  POPC      H11S          -25.6318712101       14.7637670602       -5.4750122300  MEMB      63              0.0000000000
      8378        63  POPC      C212          -23.6537760446       15.5381314648       -5.3930991581  MEMB      63              0.0000000000
      8379        63  POPC      H12R          -23.9690346644       16.5745765200       -5.6295360300  MEMB      63              0.0000000000
      8380        63  POPC      H12S          -22.6697058951       15.2908596817       -5.8474113937  MEMB      63              0.0000000000
      8381        63  POPC      C213          -23.6363434734       15.3706540318       -3.8911598748  MEMB      63              0.0000000000
      8382        63  POPC      H13R          -22.9247643494       16.1066627790       -3.4653019600  MEMB      63              0.0000000000
      8383        63  POPC      H13S          -23.2120838059       14.3515147835       -3.6841863012  MEMB      63              0.0000000000
      8384        63  POPC      C214          -25.0516773621       15.5445521736       -3.2525332175  MEMB      63              0.0000000000
      8385        63  POPC      H14R          -25.5937923846       14.5704825363       -3.3875520463  MEMB      63              0.0000000000
      8386        63  POPC      H14S          -25.6197492981       16.3481312865       -3.7355851606  MEMB      63              0.0000000000
      8387        63  POPC      C215          -25.0722927816       15.8315769243       -1.7702919613  MEMB      63              0.0000000000
      8388        63  POPC      H15R          -26.0809826046       15.8611356112       -1.2906481370  MEMB      63              0.0000000000
      8389        63  POPC      H15S          -24.4541882087       16.7010441766       -1.4397380996  MEMB      63              0.0000000000
      8390        63  POPC      C216          -24.4407287261       14.5887904764       -1.3547738579  MEMB      63              0.0000000000
      8391        63  POPC      H16R          -23.4829406535       14.4152732461       -1.8681996894  MEMB      63              0.0000000000
      8392        63  POPC      H16S          -25.1389539252       13.7249812380       -1.2813841107  MEMB      63              0.0000000000
      8393        63  POPC      C217          -23.7727457441       14.6658806228       -0.1568806299  MEMB      63              0.0000000000
      8394        63  POPC      H17R          -24.6535970371       14.9635400263        0.4403524568  MEMB      63              0.0000000000
      8395        63  POPC      H17S          -23.4586927343       15.6462599466        0.2161547361  MEMB      63              0.0000000000
      8396        63  POPC      C218          -22.9186092672       13.2784456187       -0.2337010098  MEMB      63              0.0000000000
      8397        63  POPC      H18R          -22.5802805401       12.9089926706        0.7035250884  MEMB      63              0.0000000000
      8398        63  POPC      H18S          -21.8574718321       13.3238428022       -0.5060372898  MEMB      63              0.0000000000
      8399        63  POPC      H18T          -23.3762829723       12.2769373200       -0.2191164277  MEMB      63              0.0000000000
      8400        63  POPC      C33           -24.0570111553       17.8731500844      -10.4185973633  MEMB      63              0.0000000000
      8401        63  POPC      H3X           -23.4034136510       18.1910897704      -11.2661559539  MEMB      63              0.0000000000
      8402        63  POPC      H3Y           -24.0048270365       16.7721519471      -10.2954539541  MEMB      63              0.0000000000
      8403        63  POPC      C34           -23.4759701359       18.5099539026       -9.1638916549  MEMB      63              0.0000000000
      8404        63  POPC      H4X           -24.1304812417       18.3288896779       -8.2819280485  MEMB      63              0.0000000000
      8405        63  POPC      H4Y           -23.4751176673       19.5767317642       -9.4156977175  MEMB      63              0.0000000000
      8406        63  POPC      C35           -22.0204966366       18.1094150512       -8.8473931814  MEMB      63              0.0000000000
      8407        63  POPC      H5X           -21.3193655745       18.6766694918       -9.5011471556  MEMB      63              0.0000000000
      8408        63  POPC      H5Y           -21.9673081179       17.0434189503       -9.0402105743  MEMB      63              0.0000000000
      8409        63  POPC      C36           -21.5838172478       18.2497878024       -7.3830526522  MEMB      63              0.0000000000
      8410        63  POPC      H6X           -20.5647496826       17.9316406409       -7.1257602201  MEMB      63              0.0000000000
      8411        63  POPC      H6Y           -22.2953773901       17.6390973608       -6.7727677044  MEMB      63              0.0000000000
      8412        63  POPC      C37           -21.5911743981       19.7165629942       -7.0746564785  MEMB      63              0.0000000000
      8413        63  POPC      H7X           -22.6432909942       19.7596893886       -7.2502222047  MEMB      63              0.0000000000
      8414        63  POPC      H7Y           -21.2085242556       20.4097339809       -7.8395324150  MEMB      63              0.0000000000
      8415        63  POPC      C38           -20.9763315946       20.1742205448       -5.7598433334  MEMB      63              0.0000000000
      8416        63  POPC      H8X           -21.0122799206       21.2929145664       -5.6677466249  MEMB      63              0.0000000000
      8417        63  POPC      H8Y           -19.9967777627       19.7108580420       -5.5744076153  MEMB      63              0.0000000000
      8418        63  POPC      C39           -21.7485747666       19.8149803033       -4.5789145587  MEMB      63              0.0000000000
      8419        63  POPC      H9X           -22.0305420658       18.7275724268       -4.5515406013  MEMB      63              0.0000000000
      8420        63  POPC      H9Y           -22.6343525829       20.4087139819       -4.9033738472  MEMB      63              0.0000000000
      8421        63  POPC      C310          -21.3264460030       20.4259876137       -3.2361172594  MEMB      63              0.0000000000
      8422        63  POPC      H10X          -22.0897482643       20.6073398095       -2.4787184067  MEMB      63              0.0000000000
      8423        63  POPC      H10Y          -21.0776507741       21.4927835266       -3.4014127537  MEMB      63              0.0000000000
      8424        63  POPC      C311          -20.3702599091       19.4303078256       -2.5619248159  MEMB      63              0.0000000000
      8425        63  POPC      H11X          -19.4541469417       19.5538904113       -3.1677221979  MEMB      63              0.0000000000
      8426        63  POPC      H11Y          -20.7960272293       18.4032728207       -2.6006585060  MEMB      63              0.0000000000
      8427        63  POPC      C312          -19.8892350796       19.7265767514       -1.1519090655  MEMB      63              0.0000000000
      8428        63  POPC      H12X          -20.0106852706       20.7980171538       -1.2063484986  MEMB      63              0.0000000000
      8429        63  POPC      H12Y          -18.8029693089       19.7151492867       -1.0348912642  MEMB      63              0.0000000000
      8430        63  POPC      C313          -20.2934535766       18.8034454596        0.0206118938  MEMB      63              0.0000000000
      8431        63  POPC      H13X          -19.9292898001       19.2357287244        0.9943823775  MEMB      63              0.0000000000
      8432        63  POPC      H13Y          -20.0263516055       17.7489426666       -0.1224823999  MEMB      63              0.0000000000
      8433        63  POPC      C314          -21.7415106812       18.5804186192        0.1360450873  MEMB      63              0.0000000000
      8434        63  POPC      H14X          -22.2711855552       18.2362575766       -0.7683466694  MEMB      63              0.0000000000
      8435        63  POPC      H14Y          -21.7936109092       19.6472819306        0.2396729817  MEMB      63              0.0000000000
      8436        63  POPC      C315          -22.2780749625       18.0136290872        1.4016914093  MEMB      63              0.0000000000
      8437        63  POPC      H15X          -22.5103775090       17.0043680418        1.2831360782  MEMB      63              0.0000000000
      8438        63  POPC      H15Y          -23.3421719785       18.0427175334        1.6682569409  MEMB      63              0.0000000000
      8439        63  POPC      C316          -21.6968610271       18.5376501805        2.6513904465  MEMB      63              0.0000000000
      8440        63  POPC      H16X          -20.7086391468       18.1655349354        2.8672549959  MEMB      63              0.0000000000
      8441        63  POPC      H16Y          -22.5541590877       18.4225223786        3.3678231197  MEMB      63              0.0000000000
      8442        63  POPC      H16Z          -21.4731069575       19.4980638059        2.9963716913  MEMB      63              0.0000000000
      8443        64  POPC      N              19.6152949381      -23.9284918865      -20.4599792145  MEMB      64              0.0000000000
      8444        64  POPC      C12            19.7891154471      -23.9504796649      -19.0117050336  MEMB      64              0.0000000000
      8445        64  POPC      H12A           20.7687710673      -23.5548003891      -18.7812839301  MEMB      64              0.0000000000
      8446        64  POPC      H12B           19.7480829810      -24.9887531506      -18.7047664598  MEMB      64              0.0000000000
      8447        64  POPC      C13            18.1892869318      -24.0129564254      -20.6665053843  MEMB      64              0.0000000000
      8448        64  POPC      H13A           17.6749999645      -23.0726142109      -20.4670249775  MEMB      64              0.0000000000
      8449        64  POPC      H13B           18.0827175369      -24.3990524674      -21.6674863833  MEMB      64              0.0000000000
      8450        64  POPC      H13C           17.7707548183      -24.7214912770      -19.9775125843  MEMB      64              0.0000000000
      8451        64  POPC      C14            19.9272628997      -22.6989842671      -21.2054362013  MEMB      64              0.0000000000
      8452        64  POPC      H14A           19.4412588451      -21.8319783006      -20.7405226697  MEMB      64              0.0000000000
      8453        64  POPC      H14B           20.9744920567      -22.4505648671      -21.2324220607  MEMB      64              0.0000000000
      8454        64  POPC      H14C           19.5816931732      -22.7620849857      -22.2318501557  MEMB      64              0.0000000000
      8455        64  POPC      C15            20.3956172462      -25.0633385899      -20.9575827421  MEMB      64              0.0000000000
      8456        64  POPC      H15A           20.1056110152      -26.0469413771      -20.6157295991  MEMB      64              0.0000000000
      8457        64  POPC      H15B           21.4450484718      -24.9677836137      -20.7106779289  MEMB      64              0.0000000000
      8458        64  POPC      H15C           20.4154613598      -24.9886297141      -22.0358269774  MEMB      64              0.0000000000
      8459        64  POPC      C11            18.7090002273      -23.2054288471      -18.2464129683  MEMB      64              0.0000000000
      8460        64  POPC      H11A           19.0100194665      -23.3793930364      -17.1797511335  MEMB      64              0.0000000000
      8461        64  POPC      H11B           17.6761504048      -23.6054663716      -18.3318591555  MEMB      64              0.0000000000
      8462        64  POPC      P              18.4952878893      -20.8142252390      -17.4920941459  MEMB      64              0.0000000000
      8463        64  POPC      O13            17.4782348764      -21.4153644983      -16.6191485554  MEMB      64              0.0000000000
      8464        64  POPC      O14            18.3397733036      -19.4689649109      -18.0857068198  MEMB      64              0.0000000000
      8465        64  POPC      O12            18.7087931049      -21.8356702492      -18.6743287626  MEMB      64              0.0000000000
      8466        64  POPC      O11            19.8605210511      -20.9895004237      -16.7658683155  MEMB      64              0.0000000000
      8467        64  POPC      C1             21.0035680731      -21.2377306916      -17.5768312464  MEMB      64              0.0000000000
      8468        64  POPC      HA             21.1090739014      -20.4805122515      -18.3975059292  MEMB      64              0.0000000000
      8469        64  POPC      HB             21.0326219611      -22.2590117726      -17.9393778086  MEMB      64              0.0000000000
      8470        64  POPC      C2             22.2262621875      -21.1743873175      -16.7300557618  MEMB      64              0.0000000000
      8471        64  POPC      HS             23.1203201804      -21.6058139972      -17.2207908056  MEMB      64              0.0000000000
      8472        64  POPC      O21            21.9850720930      -21.7963652409      -15.4649255957  MEMB      64              0.0000000000
      8473        64  POPC      C21            21.9646602115      -23.0436060752      -15.1528854666  MEMB      64              0.0000000000
      8474        64  POPC      O22            22.2489315685      -23.9786874726      -15.8799818890  MEMB      64              0.0000000000
      8475        64  POPC      C22            21.5087638014      -23.1743683951      -13.6648681058  MEMB      64              0.0000000000
      8476        64  POPC      H2R            20.9316477765      -24.0940945784      -13.5188996733  MEMB      64              0.0000000000
      8477        64  POPC      H2S            20.7339502541      -22.3908235038      -13.5357937083  MEMB      64              0.0000000000
      8478        64  POPC      C3             22.4016675129      -19.6379391229      -16.6206464472  MEMB      64              0.0000000000
      8479        64  POPC      HX             22.7258673599      -19.2521690383      -17.5687751662  MEMB      64              0.0000000000
      8480        64  POPC      HY             23.2804662226      -19.4503561989      -16.0050806480  MEMB      64              0.0000000000
      8481        64  POPC      O31            21.2182510014      -18.9331062945      -16.1722764448  MEMB      64              0.0000000000
      8482        64  POPC      C31            20.9585985351      -17.8511093594      -16.8556910593  MEMB      64              0.0000000000
      8483        64  POPC      O32            21.6235872866      -17.5198643161      -17.8300253920  MEMB      64              0.0000000000
      8484        64  POPC      C32            19.6656375214      -17.2644373455      -16.2052449858  MEMB      64              0.0000000000
      8485        64  POPC      H2X            18.8688067725      -17.8872473606      -16.6006812705  MEMB      64              0.0000000000
      8486        64  POPC      H2Y            19.3417418001      -16.2952111055      -16.5185917519  MEMB      64              0.0000000000
      8487        64  POPC      C23            22.6800098879      -23.1308220151      -12.6185225231  MEMB      64              0.0000000000
      8488        64  POPC      H3R            23.2623648983      -22.2028426958      -12.8075025866  MEMB      64              0.0000000000
      8489        64  POPC      H3S            23.4263765882      -23.9361083293      -12.7234697397  MEMB      64              0.0000000000
      8490        64  POPC      C24            22.2640256189      -23.0552117022      -11.1422999223  MEMB      64              0.0000000000
      8491        64  POPC      H4R            21.2224854732      -22.6776266342      -11.0214524871  MEMB      64              0.0000000000
      8492        64  POPC      H4S            23.0291526844      -22.4067629755      -10.6452478466  MEMB      64              0.0000000000
      8493        64  POPC      C25            22.3855242768      -24.2740655008      -10.2804046806  MEMB      64              0.0000000000
      8494        64  POPC      H5R            23.3524811123      -24.7526995451      -10.5591067923  MEMB      64              0.0000000000
      8495        64  POPC      H5S            21.5308746125      -24.9371860917      -10.5253101796  MEMB      64              0.0000000000
      8496        64  POPC      C26            22.3439192562      -23.9515674806       -8.7724648427  MEMB      64              0.0000000000
      8497        64  POPC      H6R            21.3859317705      -23.5133218293       -8.4468041578  MEMB      64              0.0000000000
      8498        64  POPC      H6S            23.1913815275      -23.3098011738       -8.4302372044  MEMB      64              0.0000000000
      8499        64  POPC      C27            22.4647540878      -25.2734379226       -8.0946748840  MEMB      64              0.0000000000
      8500        64  POPC      H7R            23.4510777402      -25.5748380371       -8.5223717613  MEMB      64              0.0000000000
      8501        64  POPC      H7S            21.6637411273      -25.9788117367       -8.4071958907  MEMB      64              0.0000000000
      8502        64  POPC      C28            22.7045463423      -25.3223254798       -6.6021726861  MEMB      64              0.0000000000
      8503        64  POPC      H8R            23.7291474789      -24.9264860255       -6.4186634389  MEMB      64              0.0000000000
      8504        64  POPC      H8S            22.6898933781      -26.4110626056       -6.4343563227  MEMB      64              0.0000000000
      8505        64  POPC      C29            21.7892197942      -24.9027004840       -5.5509719940  MEMB      64              0.0000000000
      8506        64  POPC      H91            21.7048648928      -23.8107463853       -5.4536647762  MEMB      64              0.0000000000
      8507        64  POPC      C210           21.2223226241      -25.7799999241       -4.6957943466  MEMB      64              0.0000000000
      8508        64  POPC      H101           20.7213586253      -25.2967902171       -3.8339020305  MEMB      64              0.0000000000
      8509        64  POPC      C211           21.3848520443      -27.3530163744       -4.6027836322  MEMB      64              0.0000000000
      8510        64  POPC      H11R           21.9229871063      -27.8960613030       -5.4168086726  MEMB      64              0.0000000000
      8511        64  POPC      H11S           20.4864293448      -27.8434053581       -4.1959437033  MEMB      64              0.0000000000
      8512        64  POPC      C212           22.2881104519      -27.8448820768       -3.5344104655  MEMB      64              0.0000000000
      8513        64  POPC      H12R           23.0422606520      -27.3251329913       -3.9755666474  MEMB      64              0.0000000000
      8514        64  POPC      H12S           22.9037319478      -28.7636651709       -3.3134638223  MEMB      64              0.0000000000
      8515        64  POPC      C213           22.1506882756      -26.8203877365       -2.6190383881  MEMB      64              0.0000000000
      8516        64  POPC      H13R           22.6025889582      -25.7968918634       -2.7383197443  MEMB      64              0.0000000000
      8517        64  POPC      H13S           23.1573601441      -27.2431524684       -2.2430552729  MEMB      64              0.0000000000
      8518        64  POPC      C214           20.7409280703      -26.9199579752       -1.8268745592  MEMB      64              0.0000000000
      8519        64  POPC      H14R           20.8627910647      -27.9579431181       -1.4604144154  MEMB      64              0.0000000000
      8520        64  POPC      H14S           19.8958917843      -26.9324157777       -2.5027034734  MEMB      64              0.0000000000
      8521        64  POPC      C215           20.1491050143      -25.8281605312       -0.7950703350  MEMB      64              0.0000000000
      8522        64  POPC      H15R           20.5584155870      -24.8727564308       -1.0515734133  MEMB      64              0.0000000000
      8523        64  POPC      H15S           20.6195906449      -25.4816455094        0.1044112551  MEMB      64              0.0000000000
      8524        64  POPC      C216           19.1259460413      -26.1691367279        0.3027225622  MEMB      64              0.0000000000
      8525        64  POPC      H16R           19.3864437538      -25.9258791391        1.3766142693  MEMB      64              0.0000000000
      8526        64  POPC      H16S           18.8262278166      -27.2223270385        0.1814281731  MEMB      64              0.0000000000
      8527        64  POPC      C217           18.0195639179      -25.2610694390        0.2190077436  MEMB      64              0.0000000000
      8528        64  POPC      H17R           17.7437358306      -25.5699531667       -0.8103984030  MEMB      64              0.0000000000
      8529        64  POPC      H17S           18.5168243252      -24.2657573953        0.3419735789  MEMB      64              0.0000000000
      8530        64  POPC      C218           16.9856525588      -25.5290266540        1.2840967084  MEMB      64              0.0000000000
      8531        64  POPC      H18R           17.3115236137      -25.2072573840        2.2971399092  MEMB      64              0.0000000000
      8532        64  POPC      H18S           16.7374550440      -26.6082315153        1.3279655497  MEMB      64              0.0000000000
      8533        64  POPC      H18T           16.0951545109      -24.9507482587        1.0148698639  MEMB      64              0.0000000000
      8534        64  POPC      C33            19.5856922882      -17.1018325051      -14.6801106965  MEMB      64              0.0000000000
      8535        64  POPC      H3X            20.1919009342      -16.2333018798      -14.3120292568  MEMB      64              0.0000000000
      8536        64  POPC      H3Y            19.8547426476      -18.0585579464      -14.1932652185  MEMB      64              0.0000000000
      8537        64  POPC      C34            18.2162327776      -16.9463952035      -14.1932330940  MEMB      64              0.0000000000
      8538        64  POPC      H4X            17.6942958371      -16.3568717760      -14.9627697261  MEMB      64              0.0000000000
      8539        64  POPC      H4Y            18.1669663290      -16.4841505635      -13.1808133525  MEMB      64              0.0000000000
      8540        64  POPC      C35            17.5390436093      -18.2506652299      -14.1705165119  MEMB      64              0.0000000000
      8541        64  POPC      H5X            17.7464515556      -18.8936064735      -15.0597129265  MEMB      64              0.0000000000
      8542        64  POPC      H5Y            16.5009293885      -17.8618034404      -14.2281015303  MEMB      64              0.0000000000
      8543        64  POPC      C36            17.6850397939      -18.9924733314      -12.8624809135  MEMB      64              0.0000000000
      8544        64  POPC      H6X            16.6825910814      -19.3381380977      -12.6987999619  MEMB      64              0.0000000000
      8545        64  POPC      H6Y            17.9341568871      -18.3239323035      -12.0210249645  MEMB      64              0.0000000000
      8546        64  POPC      C37            18.4125475102      -20.3236723768      -12.9466717436  MEMB      64              0.0000000000
      8547        64  POPC      H7X            19.3685125673      -20.0815916932      -13.4327303330  MEMB      64              0.0000000000
      8548        64  POPC      H7Y            17.9081557009      -20.9567868835      -13.7146036216  MEMB      64              0.0000000000
      8549        64  POPC      C38            18.4828172576      -21.0901141439      -11.5961968001  MEMB      64              0.0000000000
      8550        64  POPC      H8X            18.9868581369      -22.0569906817      -11.7927724739  MEMB      64              0.0000000000
      8551        64  POPC      H8Y            17.5607253503      -21.4354021734      -11.1310547980  MEMB      64              0.0000000000
      8552        64  POPC      C39            19.1184947791      -20.3305618447      -10.4217954049  MEMB      64              0.0000000000
      8553        64  POPC      H9X            19.1950541557      -19.2344018939      -10.5850349332  MEMB      64              0.0000000000
      8554        64  POPC      H9Y            20.0764172669      -20.7726996845      -10.6237243916  MEMB      64              0.0000000000
      8555        64  POPC      C310           18.7190432601      -20.7083273994       -8.9573964134  MEMB      64              0.0000000000
      8556        64  POPC      H10X           18.0188995503      -21.5684084829       -8.9689298569  MEMB      64              0.0000000000
      8557        64  POPC      H10Y           18.2266085823      -19.8137414924       -8.5036667188  MEMB      64              0.0000000000
      8558        64  POPC      C311           19.8252440738      -21.0068425081       -7.9628283061  MEMB      64              0.0000000000
      8559        64  POPC      H11X           20.3680156912      -20.0465444426       -7.8475264797  MEMB      64              0.0000000000
      8560        64  POPC      H11Y           20.4757357604      -21.7774901364       -8.4055661633  MEMB      64              0.0000000000
      8561        64  POPC      C312           19.4388325570      -21.5033122957       -6.5564044363  MEMB      64              0.0000000000
      8562        64  POPC      H12X           18.7964041025      -20.7688614082       -6.0286289030  MEMB      64              0.0000000000
      8563        64  POPC      H12Y           20.3963775324      -21.5608930179       -5.9840212846  MEMB      64              0.0000000000
      8564        64  POPC      C313           18.8394807843      -22.9177978495       -6.5335622013  MEMB      64              0.0000000000
      8565        64  POPC      H13X           19.4115226201      -23.5572920096       -7.2447786170  MEMB      64              0.0000000000
      8566        64  POPC      H13Y           17.7849229687      -22.9167480744       -6.8816868033  MEMB      64              0.0000000000
      8567        64  POPC      C314           18.9257083785      -23.5745147486       -5.1484215524  MEMB      64              0.0000000000
      8568        64  POPC      H14X           19.8811265183      -23.3013384970       -4.6490671195  MEMB      64              0.0000000000
      8569        64  POPC      H14Y           18.9181625705      -24.6813602283       -5.2883797288  MEMB      64              0.0000000000
      8570        64  POPC      C315           17.7769263687      -23.1687945194       -4.2323398435  MEMB      64              0.0000000000
      8571        64  POPC      H15X           16.8544079986      -23.1202268890       -4.8528791240  MEMB      64              0.0000000000
      8572        64  POPC      H15Y           17.9936802731      -22.1516821540       -3.8373154660  MEMB      64              0.0000000000
      8573        64  POPC      C316           17.5341311325      -24.1147178820       -3.0581047325  MEMB      64              0.0000000000
      8574        64  POPC      H16X           18.4349956404      -24.1752912599       -2.4113592240  MEMB      64              0.0000000000
      8575        64  POPC      H16Y           17.2915796568      -25.1388998508       -3.4171279409  MEMB      64              0.0000000000
      8576        64  POPC      H16Z           16.6843619903      -23.7453718152       -2.4434828361  MEMB      64              0.0000000000
      8577        65  TIP3      OH2           -11.4212521751      -13.3218781406       26.7907269775  TIP3      1               0.0000000000
      8578        65  TIP3      H1            -11.4811101699      -12.3428919945       26.8012217433  TIP3      1               0.0000000000
      8579        65  TIP3      H2            -12.1730566503      -13.5569856748       26.2224643767  TIP3      1               0.0000000000
      8580        66  TIP3      OH2           -12.5847583748      -14.1079406902       30.2878022696  TIP3      2               0.0000000000
      8581        66  TIP3      H1            -12.5973918302      -14.7292442449       31.0348601294  TIP3      2               0.0000000000
      8582        66  TIP3      H2            -13.0018079742      -14.6214005659       29.5765739670  TIP3      2               0.0000000000
      8583        67  TIP3      OH2           -20.2184680453      -14.4310574662       31.8123692212  TIP3      3               0.0000000000
      8584        67  TIP3      H1            -20.1486757315      -15.1084446191       32.5133087859  TIP3      3               0.0000000000
      8585        67  TIP3      H2            -19.4938480645      -13.8355295190       32.0730438662  TIP3      3               0.0000000000
      8586        68  TIP3      OH2            -8.9472053645      -11.1390841527       28.6038635570  TIP3      4               0.0000000000
      8587        68  TIP3      H1             -9.3276906850      -11.8602259386       29.1109929321  TIP3      4               0.0000000000
      8588        68  TIP3      H2             -8.8897894365      -10.4419087174       29.2861785424  TIP3      4               0.0000000000
      8589        69  TIP3      OH2           -19.3832555911       -9.9484486124       30.3404156989  TIP3      5               0.0000000000
      8590        69  TIP3      H1            -19.6524722113      -10.8401302975       30.0392590572  TIP3      5               0.0000000000
      8591        69  TIP3      H2            -18.4232911133      -10.1082684832       30.3800297953  TIP3      5               0.0000000000
      8592        70  TIP3      OH2           -22.6045102837      -16.3740111682       25.6724764616  TIP3      6               0.0000000000
      8593        70  TIP3      H1            -23.0557050763      -15.5375691690       25.8703140933  TIP3      6               0.0000000000
      8594        70  TIP3      H2            -23.2907786750      -16.9676856717       25.3963397289  TIP3      6               0.0000000000
      8595        71  TIP3      OH2           -21.9304292307      -14.2122775024       27.9950907320  TIP3      7               0.0000000000
      8596        71  TIP3      H1            -21.6587515349      -15.0420878154       28.4341619514  TIP3      7               0.0000000000
      8597        71  TIP3      H2            -21.2184708693      -14.0408354314       27.3722414024  TIP3      7               0.0000000000
      8598        72  TIP3      OH2           -11.8006690269       -5.9522579785       28.8296086172  TIP3      8               0.0000000000
      8599        72  TIP3      H1            -11.1576244100       -6.6342825367       28.5222926670  TIP3      8               0.0000000000
      8600        72  TIP3      H2            -12.0377691689       -6.3440488141       29.6779867884  TIP3      8               0.0000000000
      8601        73  TIP3      OH2           -14.2269333368      -11.6868537249       30.8169249388  TIP3      9               0.0000000000
      8602        73  TIP3      H1            -13.9053932402      -12.3060742915       30.1456570149  TIP3      9               0.0000000000
      8603        73  TIP3      H2            -13.3954707725      -11.5330873780       31.3030408595  TIP3      9               0.0000000000
      8604        74  TIP3      OH2            -5.5894604751      -20.1086474847       31.5148159872  TIP3      10              0.0000000000
      8605        74  TIP3      H1             -5.4481577737      -19.4810242612       32.2631027273  TIP3      10              0.0000000000
      8606        74  TIP3      H2             -5.0702437786      -19.6552264638       30.8333475292  TIP3      10              0.0000000000
      8607        75  TIP3      OH2           -11.0491750293      -17.2479890042       31.1350697303  TIP3      11              0.0000000000
      8608        75  TIP3      H1            -10.8801569168      -18.2093742024       31.1411986394  TIP3      11              0.0000000000
      8609        75  TIP3      H2            -11.1622825480      -17.1038432854       30.1744354963  TIP3      11              0.0000000000
      8610        76  TIP3      OH2           -18.0243106990      -19.0641435951       28.3016134257  TIP3      12              0.0000000000
      8611        76  TIP3      H1            -17.8260250669      -18.2686787288       27.7631897480  TIP3      12              0.0000000000
      8612        76  TIP3      H2            -18.2872834906      -19.7092202790       27.6090619964  TIP3      12              0.0000000000
      8613        77  TIP3      OH2           -10.1747340331      -19.1412307661       26.6726807240  TIP3      13              0.0000000000
      8614        77  TIP3      H1             -9.5410330494      -19.3997307395       27.3808465160  TIP3      13              0.0000000000
      8615        77  TIP3      H2             -9.6596315864      -18.4892470149       26.1763364094  TIP3      13              0.0000000000
      8616        78  TIP3      OH2           -21.2095450472      -16.6990634505       28.9692910834  TIP3      14              0.0000000000
      8617        78  TIP3      H1            -20.6089966337      -17.2690251990       29.4764518809  TIP3      14              0.0000000000
      8618        78  TIP3      H2            -21.1275233825      -17.0738127945       28.0800705940  TIP3      14              0.0000000000
      8619        79  TIP3      OH2           -16.1949602922      -15.1703981432       28.4022719580  TIP3      15              0.0000000000
      8620        79  TIP3      H1            -15.4958589991      -15.7484909288       28.7561854341  TIP3      15              0.0000000000
      8621        79  TIP3      H2            -16.6614881523      -15.8063306859       27.8179232864  TIP3      15              0.0000000000
      8622        80  TIP3      OH2            -5.1771304952      -18.6031611030       33.7716362791  TIP3      16              0.0000000000
      8623        80  TIP3      H1             -5.7882204627      -17.8422593288       33.6659381957  TIP3      16              0.0000000000
      8624        80  TIP3      H2             -5.1734254471      -18.7134223089       34.7295213557  TIP3      16              0.0000000000
      8625        81  TIP3      OH2           -19.0053316325      -20.2041982241       32.3385469622  TIP3      17              0.0000000000
      8626        81  TIP3      H1            -19.3213212414      -19.6343832336       31.5977621208  TIP3      17              0.0000000000
      8627        81  TIP3      H2            -19.7391942852      -20.0348725796       32.9912814801  TIP3      17              0.0000000000
      8628        82  TIP3      OH2           -11.7638367220      -10.7767416684       25.9137536550  TIP3      18              0.0000000000
      8629        82  TIP3      H1            -12.0835567676      -11.0253636780       25.0348906991  TIP3      18              0.0000000000
      8630        82  TIP3      H2            -12.0495988426       -9.8365532884       25.9671695287  TIP3      18              0.0000000000
      8631        83  TIP3      OH2           -16.5398538071      -12.5865148054       32.5561830887  TIP3      19              0.0000000000
      8632        83  TIP3      H1            -17.2322834082      -11.9467512091       32.8314683691  TIP3      19              0.0000000000
      8633        83  TIP3      H2            -15.8284132376      -11.9895229509       32.2712952766  TIP3      19              0.0000000000
      8634        84  TIP3      OH2            -8.4189558720      -19.6275081394       28.7279442021  TIP3      20              0.0000000000
      8635        84  TIP3      H1             -8.5967400541      -20.4619171246       29.1889854748  TIP3      20              0.0000000000
      8636        84  TIP3      H2             -7.6962859033      -19.2774137448       29.2679602505  TIP3      20              0.0000000000
      8637        85  TIP3      OH2           -19.4758245884      -18.3469694954       30.3855415083  TIP3      21              0.0000000000
      8638        85  TIP3      H1            -18.8295213763      -17.6750114690       30.6996934613  TIP3      21              0.0000000000
      8639        85  TIP3      H2            -18.9784527303      -18.7556579575       29.6242841939  TIP3      21              0.0000000000
      8640        86  TIP3      OH2           -18.0369401248      -10.5704578701       33.3985622162  TIP3      22              0.0000000000
      8641        86  TIP3      H1            -18.1082138599       -9.6541108060       33.0691689231  TIP3      22              0.0000000000
      8642        86  TIP3      H2            -18.9241824816      -10.6768265458       33.8165413697  TIP3      22              0.0000000000
      8643        87  TIP3      OH2           -21.5307293255      -10.6904374428       24.1146022479  TIP3      23              0.0000000000
      8644        87  TIP3      H1            -22.2660012596      -10.8082738236       23.4927172127  TIP3      23              0.0000000000
      8645        87  TIP3      H2            -21.8860718224      -10.0758301579       24.7737930496  TIP3      23              0.0000000000
      8646        88  TIP3      OH2            -8.3966501295       -9.2918456949       30.9608536995  TIP3      24              0.0000000000
      8647        88  TIP3      H1             -9.3654054828       -9.1705803135       31.0808683263  TIP3      24              0.0000000000
      8648        88  TIP3      H2             -8.1292694879       -8.3822433664       30.7338390689  TIP3      24              0.0000000000
      8649        89  TIP3      OH2            -7.9941988701      -21.0266922759       32.4757967991  TIP3      25              0.0000000000
      8650        89  TIP3      H1             -8.7714333038      -20.4995789248       32.2382910215  TIP3      25              0.0000000000
      8651        89  TIP3      H2             -7.3500097745      -20.6499287234       31.8467177090  TIP3      25              0.0000000000
      8652        90  TIP3      OH2           -14.9229478093      -22.6497268889       29.9183994995  TIP3      26              0.0000000000
      8653        90  TIP3      H1            -15.0595565206      -23.6127915632       29.8315337561  TIP3      26              0.0000000000
      8654        90  TIP3      H2            -15.8281368657      -22.3409109082       30.0537747964  TIP3      26              0.0000000000
      8655        91  TIP3      OH2           -10.0857500599       -7.5111227128       27.5954572379  TIP3      27              0.0000000000
      8656        91  TIP3      H1             -9.7103675334       -8.2345576180       27.0598097873  TIP3      27              0.0000000000
      8657        91  TIP3      H2             -9.6453304763       -6.7444342412       27.1689261985  TIP3      27              0.0000000000
      8658        92  TIP3      OH2            -8.8445513508       -9.6032968312       26.0416274361  TIP3      28              0.0000000000
      8659        92  TIP3      H1             -9.2336985379      -10.2828891081       25.4692582978  TIP3      28              0.0000000000
      8660        92  TIP3      H2             -8.8608524102      -10.0694749481       26.8990638645  TIP3      28              0.0000000000
      8661        93  TIP3      OH2            -7.3264603213      -10.9711101885       34.5610094220  TIP3      29              0.0000000000
      8662        93  TIP3      H1             -7.1588670007      -11.6577830965       33.8760838011  TIP3      29              0.0000000000
      8663        93  TIP3      H2             -7.0879547936      -10.1528463512       34.0852721131  TIP3      29              0.0000000000
      8664        94  TIP3      OH2           -12.7873919392      -14.0720466422       24.2937167065  TIP3      30              0.0000000000
      8665        94  TIP3      H1            -13.5003079977      -13.5084933199       23.9184280274  TIP3      30              0.0000000000
      8666        94  TIP3      H2            -12.1336423307      -14.0270578867       23.5760929583  TIP3      30              0.0000000000
      8667        95  TIP3      OH2           -12.7302716699      -15.6330283262       21.4925895761  TIP3      31              0.0000000000
      8668        95  TIP3      H1            -11.9634371114      -15.5933086360       22.0696514232  TIP3      31              0.0000000000
      8669        95  TIP3      H2            -12.4606096690      -16.1688112415       20.7546130884  TIP3      31              0.0000000000
      8670        96  TIP3      OH2            -5.4056368444      -14.6623707397       32.5739171204  TIP3      32              0.0000000000
      8671        96  TIP3      H1             -6.0426860171      -13.9225373081       32.6120504911  TIP3      32              0.0000000000
      8672        96  TIP3      H2             -4.8766016458      -14.4176525567       31.7891240937  TIP3      32              0.0000000000
      8673        97  TIP3      OH2            -9.3360549476      -13.9630134252       25.2340308905  TIP3      33              0.0000000000
      8674        97  TIP3      H1            -10.0596406134      -13.6643154332       25.8398643821  TIP3      33              0.0000000000
      8675        97  TIP3      H2             -8.8318806090      -14.5460949566       25.8304430965  TIP3      33              0.0000000000
      8676        98  TIP3      OH2            -9.4150243457      -15.7346155904       34.3921443533  TIP3      34              0.0000000000
      8677        98  TIP3      H1             -9.4212114691      -14.8992463431       34.8865868794  TIP3      34              0.0000000000
      8678        98  TIP3      H2            -10.0285567527      -15.4608123538       33.6817021114  TIP3      34              0.0000000000
      8679        99  TIP3      OH2           -17.7244599994      -13.2182992173       27.1627761295  TIP3      35              0.0000000000
      8680        99  TIP3      H1            -18.0587492254      -13.6281033723       26.3376017788  TIP3      35              0.0000000000
      8681        99  TIP3      H2            -17.1117027475      -13.9139895563       27.4971041220  TIP3      35              0.0000000000
      8682       100  TIP3      OH2           -16.4546357179       -9.8761964647       29.8547890433  TIP3      36              0.0000000000
      8683       100  TIP3      H1            -16.4253445403      -10.3556514314       29.0143761230  TIP3      36              0.0000000000
      8684       100  TIP3      H2            -15.6456532238      -10.2077277520       30.2895402927  TIP3      36              0.0000000000
      8685       101  TIP3      OH2           -17.4207157531      -14.4864313950       30.8459595012  TIP3      37              0.0000000000
      8686       101  TIP3      H1            -16.8971215475      -14.4057303018       30.0233151831  TIP3      37              0.0000000000
      8687       101  TIP3      H2            -17.0123449907      -13.8031556230       31.4267433093  TIP3      37              0.0000000000
      8688       102  TIP3      OH2           -10.9627965493       -8.8959548749       31.5561980388  TIP3      38              0.0000000000
      8689       102  TIP3      H1            -11.2519758571       -8.2635234970       32.2231632892  TIP3      38              0.0000000000
      8690       102  TIP3      H2            -11.2194276015       -9.7557721429       31.9587764873  TIP3      38              0.0000000000
      8691       103  TIP3      OH2           -16.4516283680      -10.0474179643       35.5357783621  TIP3      39              0.0000000000
      8692       103  TIP3      H1            -16.9070881360       -9.3386849761       36.0336237965  TIP3      39              0.0000000000
      8693       103  TIP3      H2            -17.1014742020      -10.2615129613       34.8240103355  TIP3      39              0.0000000000
      8694       104  TIP3      OH2           -10.4308623597      -14.7421421885       22.9113787667  TIP3      40              0.0000000000
      8695       104  TIP3      H1             -9.9558339341      -14.4932511645       23.7492924643  TIP3      40              0.0000000000
      8696       104  TIP3      H2            -10.0987283178      -14.1177980485       22.2604671948  TIP3      40              0.0000000000
      8697       105  TIP3      OH2           -19.4932860819      -13.8821407022       34.6785228955  TIP3      41              0.0000000000
      8698       105  TIP3      H1            -19.4347487994      -13.1873956682       35.3573928073  TIP3      41              0.0000000000
      8699       105  TIP3      H2            -20.4527031207      -13.8483082740       34.5060856339  TIP3      41              0.0000000000
      8700       106  TIP3      OH2           -12.7223566164       -7.9418948040       26.3602949520  TIP3      42              0.0000000000
      8701       106  TIP3      H1            -12.3384813331       -7.6658109232       27.1998905765  TIP3      42              0.0000000000
      8702       106  TIP3      H2            -13.3315442506       -7.2224004556       26.1595085401  TIP3      42              0.0000000000
      8703       107  TIP3      OH2           -18.2110563205       -7.9982571098       36.2862817145  TIP3      43              0.0000000000
      8704       107  TIP3      H1            -18.2686742906       -8.1115772293       35.3195697578  TIP3      43              0.0000000000
      8705       107  TIP3      H2            -19.1240234409       -8.2085756156       36.5647308380  TIP3      43              0.0000000000
      8706       108  TIP3      OH2            -6.7858637091      -23.0055709864       22.7886749510  TIP3      44              0.0000000000
      8707       108  TIP3      H1             -7.6794819126      -22.8345652739       23.1356934769  TIP3      44              0.0000000000
      8708       108  TIP3      H2             -6.5843854499      -22.1768791504       22.3371471701  TIP3      44              0.0000000000
      8709       109  TIP3      OH2           -18.7029397452      -14.2439066255       24.7411984743  TIP3      45              0.0000000000
      8710       109  TIP3      H1            -19.0388533874      -13.4059145995       24.3795177939  TIP3      45              0.0000000000
      8711       109  TIP3      H2            -19.4073709574      -14.8858951983       24.6096131085  TIP3      45              0.0000000000
      8712       110  TIP3      OH2           -22.6004642432      -11.7263707326       33.6687325478  TIP3      46              0.0000000000
      8713       110  TIP3      H1            -22.9719771791      -11.8530883292       32.7901791762  TIP3      46              0.0000000000
      8714       110  TIP3      H2            -22.5352363476      -12.6518077496       33.9414791983  TIP3      46              0.0000000000
      8715       111  TIP3      OH2           -22.8576881481       -9.0200448090       30.3634633844  TIP3      47              0.0000000000
      8716       111  TIP3      H1            -21.9038269446       -9.1801569251       30.4245302253  TIP3      47              0.0000000000
      8717       111  TIP3      H2            -23.0065104979       -8.3139370723       31.0070246718  TIP3      47              0.0000000000
      8718       112  TIP3      OH2            -4.6817497503       -8.3408408296       36.1613165564  TIP3      48              0.0000000000
      8719       112  TIP3      H1             -4.8123201916       -9.2968680096       36.1223064845  TIP3      48              0.0000000000
      8720       112  TIP3      H2             -5.5597569259       -8.0828439218       36.5291942372  TIP3      48              0.0000000000
      8721       113  TIP3      OH2           -13.7254257368       -8.8170814450       35.0103201906  TIP3      49              0.0000000000
      8722       113  TIP3      H1            -13.6702758600       -7.9739252066       35.5193244867  TIP3      49              0.0000000000
      8723       113  TIP3      H2            -14.5990286651       -9.1759591296       35.2574344609  TIP3      49              0.0000000000
      8724       114  TIP3      OH2           -13.2439027537       -5.1110138562       24.8049802293  TIP3      50              0.0000000000
      8725       114  TIP3      H1            -13.4933769488       -5.1208199247       23.8888696613  TIP3      50              0.0000000000
      8726       114  TIP3      H2            -13.3071178136       -4.1755902960       25.0845480504  TIP3      50              0.0000000000
      8727       115  TIP3      OH2           -19.6216621587       -6.2021530460       26.6218163807  TIP3      51              0.0000000000
      8728       115  TIP3      H1            -19.4869255488       -6.6043933479       27.5083221922  TIP3      51              0.0000000000
      8729       115  TIP3      H2            -20.4734375929       -6.6124706724       26.3984706969  TIP3      51              0.0000000000
      8730       116  TIP3      OH2           -10.5916263902       -5.8450659766       24.6068540841  TIP3      52              0.0000000000
      8731       116  TIP3      H1            -11.5357994056       -5.8530187940       24.8428824915  TIP3      52              0.0000000000
      8732       116  TIP3      H2            -10.2528816436       -6.6239625160       25.0789070901  TIP3      52              0.0000000000
      8733       117  TIP3      OH2            -7.5470696109      -16.8883929590       36.6092964786  TIP3      53              0.0000000000
      8734       117  TIP3      H1             -8.0321903006      -16.4367777113       35.9007873003  TIP3      53              0.0000000000
      8735       117  TIP3      H2             -7.5651273003      -17.8109731176       36.3111029638  TIP3      53              0.0000000000
      8736       118  TIP3      OH2           -20.3804982710      -10.4344478645       34.6563840721  TIP3      54              0.0000000000
      8737       118  TIP3      H1            -20.2272645923      -10.7855139341       35.5556066211  TIP3      54              0.0000000000
      8738       118  TIP3      H2            -21.2590916046      -10.8278406377       34.4350188376  TIP3      54              0.0000000000
      8739       119  TIP3      OH2           -17.6796291286      -21.4318989706       30.4279264101  TIP3      55              0.0000000000
      8740       119  TIP3      H1            -18.5394729517      -21.8309088899       30.1220921121  TIP3      55              0.0000000000
      8741       119  TIP3      H2            -18.0136236900      -20.9503756183       31.2081881095  TIP3      55              0.0000000000
      8742       120  TIP3      OH2           -13.0888298663      -22.0299322178       34.2274263468  TIP3      56              0.0000000000
      8743       120  TIP3      H1            -12.5747838061      -22.7224581475       34.6562264585  TIP3      56              0.0000000000
      8744       120  TIP3      H2            -13.9214349244      -22.4805965027       34.1001459092  TIP3      56              0.0000000000
      8745       121  TIP3      OH2            -9.8012266836      -18.5144519217       34.8298085202  TIP3      57              0.0000000000
      8746       121  TIP3      H1            -10.3743212620      -18.6926412545       35.6115478313  TIP3      57              0.0000000000
      8747       121  TIP3      H2             -9.9528019556      -17.5782677169       34.6054761980  TIP3      57              0.0000000000
      8748       122  TIP3      OH2           -17.6129731274      -17.0046249125       31.8145571555  TIP3      58              0.0000000000
      8749       122  TIP3      H1            -18.3208327136      -17.0071906787       32.4820089646  TIP3      58              0.0000000000
      8750       122  TIP3      H2            -17.6623921348      -16.0914093971       31.4501408608  TIP3      58              0.0000000000
      8751       123  TIP3      OH2           -17.6530753437      -16.8803804064       26.7320585130  TIP3      59              0.0000000000
      8752       123  TIP3      H1            -18.5870400285      -17.1438358642       26.5664922479  TIP3      59              0.0000000000
      8753       123  TIP3      H2            -17.2751042624      -17.1894924803       25.8735074093  TIP3      59              0.0000000000
      8754       124  TIP3      OH2           -12.1308789514      -16.4189975769       25.4223170407  TIP3      60              0.0000000000
      8755       124  TIP3      H1            -12.5108079840      -15.5699720379       25.1096162822  TIP3      60              0.0000000000
      8756       124  TIP3      H2            -11.4183129128      -16.5780425713       24.7859478942  TIP3      60              0.0000000000
      8757       125  TIP3      OH2           -13.1115801235      -16.1949423442       36.8861389863  TIP3      61              0.0000000000
      8758       125  TIP3      H1            -13.5641758502      -17.0148905021       37.1823529620  TIP3      61              0.0000000000
      8759       125  TIP3      H2            -12.2572389955      -16.2620849504       37.3488337335  TIP3      61              0.0000000000
      8760       126  TIP3      OH2           -11.0660168320      -16.8975758933       28.3204866239  TIP3      62              0.0000000000
      8761       126  TIP3      H1            -11.3890703308      -16.3337249264       27.5983862132  TIP3      62              0.0000000000
      8762       126  TIP3      H2            -11.0150483626      -17.7495604204       27.8545576221  TIP3      62              0.0000000000
      8763       127  TIP3      OH2           -20.0086892750      -16.7720634434       33.5061350496  TIP3      63              0.0000000000
      8764       127  TIP3      H1            -19.9475324616      -16.3679510403       34.3842024022  TIP3      63              0.0000000000
      8765       127  TIP3      H2            -20.4195963160      -17.6307582129       33.6943079615  TIP3      63              0.0000000000
      8766       128  TIP3      OH2           -22.1103218717      -19.5346614912       27.1931942235  TIP3      64              0.0000000000
      8767       128  TIP3      H1            -22.3784852284      -19.6977339311       28.1098246242  TIP3      64              0.0000000000
      8768       128  TIP3      H2            -22.7489433505      -20.0850634783       26.7112587267  TIP3      64              0.0000000000
      8769       129  TIP3      OH2           -22.1011914619      -18.7910189528       22.9679717180  TIP3      65              0.0000000000
      8770       129  TIP3      H1            -21.5947537421      -18.3836783074       22.2524188757  TIP3      65              0.0000000000
      8771       129  TIP3      H2            -22.8349454184      -18.2040891189       23.0762708177  TIP3      65              0.0000000000
      8772       130  TIP3      OH2           -11.9364696295      -15.3410074969       32.8255814634  TIP3      66              0.0000000000
      8773       130  TIP3      H1            -11.5162736654      -16.0315367358       32.2646885664  TIP3      66              0.0000000000
      8774       130  TIP3      H2            -12.3981440395      -15.8644168560       33.5015994987  TIP3      66              0.0000000000
      8775       131  TIP3      OH2           -15.1013423988      -19.2595902112       27.7300656845  TIP3      67              0.0000000000
      8776       131  TIP3      H1            -16.0323146025      -19.3945914188       27.9981593694  TIP3      67              0.0000000000
      8777       131  TIP3      H2            -14.6156654398      -19.5699906052       28.5135891438  TIP3      67              0.0000000000
      8778       132  TIP3      OH2           -20.1668915641      -17.7035203254       26.4376942065  TIP3      68              0.0000000000
      8779       132  TIP3      H1            -21.1201158353      -17.6840314429       26.2191339048  TIP3      68              0.0000000000
      8780       132  TIP3      H2            -19.9546134143      -18.6315054863       26.2155598706  TIP3      68              0.0000000000
      8781       133  TIP3      OH2           -16.6447159525      -17.5191794216       24.3747758864  TIP3      69              0.0000000000
      8782       133  TIP3      H1            -15.7157318573      -17.8157781311       24.3162809368  TIP3      69              0.0000000000
      8783       133  TIP3      H2            -16.8510221115      -17.2470170306       23.4708926966  TIP3      69              0.0000000000
      8784       134  TIP3      OH2           -10.6614479631      -20.1947538169       30.9084808214  TIP3      70              0.0000000000
      8785       134  TIP3      H1            -11.3436761920      -20.0836175904       31.6007569865  TIP3      70              0.0000000000
      8786       134  TIP3      H2            -11.1701647950      -20.4474514964       30.1260072667  TIP3      70              0.0000000000
      8787       135  TIP3      OH2           -18.1053714010      -16.3728352474       21.6130337959  TIP3      71              0.0000000000
      8788       135  TIP3      H1            -18.4377551689      -17.0870393270       21.0693230332  TIP3      71              0.0000000000
      8789       135  TIP3      H2            -17.1777451745      -16.4539636897       21.3517156606  TIP3      71              0.0000000000
      8790       136  TIP3      OH2            -7.5025814311       -4.4684367721       37.2673974114  TIP3      72              0.0000000000
      8791       136  TIP3      H1             -7.2362623675       -4.1004717445       36.4046248061  TIP3      72              0.0000000000
      8792       136  TIP3      H2             -6.7764181137       -4.1512321943       37.8205238989  TIP3      72              0.0000000000
      8793       137  TIP3      OH2           -19.7430236208      -12.0361784301       36.8267075636  TIP3      73              0.0000000000
      8794       137  TIP3      H1            -19.0291826188      -11.7599512111       37.4284676776  TIP3      73              0.0000000000
      8795       137  TIP3      H2            -20.5234699149      -11.9401013205       37.4295658068  TIP3      73              0.0000000000
      8796       138  TIP3      OH2           -13.8108528191      -16.5891161262       29.5857496667  TIP3      74              0.0000000000
      8797       138  TIP3      H1            -13.2323191323      -17.1327066453       29.0393915751  TIP3      74              0.0000000000
      8798       138  TIP3      H2            -13.9848005643      -17.1674030448       30.3408183102  TIP3      74              0.0000000000
      8799       139  TIP3      OH2           -18.8777667455      -20.4398909787       25.9767557861  TIP3      75              0.0000000000
      8800       139  TIP3      H1            -19.1278164382      -21.3733048403       26.0818246505  TIP3      75              0.0000000000
      8801       139  TIP3      H2            -18.0355771731      -20.5357018745       25.4972979692  TIP3      75              0.0000000000
      8802       140  TIP3      OH2           -15.1508056291      -18.2551758735       31.9831561828  TIP3      76              0.0000000000
      8803       140  TIP3      H1            -15.9686639060      -17.7158252269       32.0346891270  TIP3      76              0.0000000000
      8804       140  TIP3      H2            -14.5914431691      -17.8838962121       32.6875592464  TIP3      76              0.0000000000
      8805       141  TIP3      OH2           -14.5963869304      -12.0410468610       23.6938837827  TIP3      77              0.0000000000
      8806       141  TIP3      H1            -15.4004939764      -12.4940689265       23.3715802794  TIP3      77              0.0000000000
      8807       141  TIP3      H2            -14.8189436031      -11.8612487612       24.6243223264  TIP3      77              0.0000000000
      8808       142  TIP3      OH2            -7.3578555217      -12.8016228103       32.5047223278  TIP3      78              0.0000000000
      8809       142  TIP3      H1             -6.8215910358      -12.3149789728       31.8465472268  TIP3      78              0.0000000000
      8810       142  TIP3      H2             -8.2295260600      -12.8095244668       32.0586999422  TIP3      78              0.0000000000
      8811       143  TIP3      OH2           -10.7858028623      -19.1450564424       21.6995956579  TIP3      79              0.0000000000
      8812       143  TIP3      H1            -11.7418939673      -19.0903955973       21.8013227174  TIP3      79              0.0000000000
      8813       143  TIP3      H2            -10.4570198609      -18.3962383136       22.2328158681  TIP3      79              0.0000000000
      8814       144  TIP3      OH2           -13.0940282360      -11.7319791794       34.9473148982  TIP3      80              0.0000000000
      8815       144  TIP3      H1            -13.4406252328      -12.1951340079       35.7176584424  TIP3      80              0.0000000000
      8816       144  TIP3      H2            -13.3866024424      -10.8234433077       35.0860457080  TIP3      80              0.0000000000
      8817       145  TIP3      OH2           -10.0257563066      -17.3494735432       23.5424226837  TIP3      81              0.0000000000
      8818       145  TIP3      H1             -9.1385741075      -17.4377228041       23.9560629511  TIP3      81              0.0000000000
      8819       145  TIP3      H2             -9.9673189381      -16.5011206431       23.0628030989  TIP3      81              0.0000000000
      8820       146  TIP3      OH2           -19.4692308298      -12.6121482987       29.5199604340  TIP3      82              0.0000000000
      8821       146  TIP3      H1            -18.8625487179      -12.7076156113       28.7627857599  TIP3      82              0.0000000000
      8822       146  TIP3      H2            -19.3821020444      -13.4797137083       29.9529381055  TIP3      82              0.0000000000
      8823       147  TIP3      OH2           -22.2168651671      -14.2274426027       34.8198691599  TIP3      83              0.0000000000
      8824       147  TIP3      H1            -22.1005918970      -14.6266288307       35.7026822078  TIP3      83              0.0000000000
      8825       147  TIP3      H2            -23.0311209057      -14.6875393191       34.5126475995  TIP3      83              0.0000000000
      8826       148  TIP3      OH2           -15.5017796521      -14.7089362307       36.9256375025  TIP3      84              0.0000000000
      8827       148  TIP3      H1            -15.8004582291      -15.0009623320       36.0515171800  TIP3      84              0.0000000000
      8828       148  TIP3      H2            -14.5619444966      -14.9910181559       36.9050923552  TIP3      84              0.0000000000
      8829       149  TIP3      OH2           -10.7590327742       -9.3276033396       34.9197838299  TIP3      85              0.0000000000
      8830       149  TIP3      H1            -11.6845578312       -9.1685284483       34.6701541142  TIP3      85              0.0000000000
      8831       149  TIP3      H2            -10.8124506897       -9.0318748281       35.8498875079  TIP3      85              0.0000000000
      8832       150  TIP3      OH2            -5.2258814587      -17.1309976123       23.3352507163  TIP3      86              0.0000000000
      8833       150  TIP3      H1             -5.6525277131      -17.5251711039       22.5618193022  TIP3      86              0.0000000000
      8834       150  TIP3      H2             -5.0316440947      -16.2159969163       23.0444169518  TIP3      86              0.0000000000
      8835       151  TIP3      OH2            -5.1293997239      -11.3104897760       36.0644638396  TIP3      87              0.0000000000
      8836       151  TIP3      H1             -6.0322481975      -11.0859281842       35.7289070917  TIP3      87              0.0000000000
      8837       151  TIP3      H2             -4.5973013961      -11.3639977772       35.2389896472  TIP3      87              0.0000000000
      8838       152  TIP3      OH2            -6.7192640790       -8.3891061908       23.7097910133  TIP3      88              0.0000000000
      8839       152  TIP3      H1             -7.1993268112       -9.1708379036       23.9741607034  TIP3      88              0.0000000000
      8840       152  TIP3      H2             -6.5749418774       -8.4422078698       22.7459161499  TIP3      88              0.0000000000
      8841       153  TIP3      OH2            -9.6062822495      -13.5278928383       30.7934673728  TIP3      89              0.0000000000
      8842       153  TIP3      H1            -10.5475335285      -13.7114616653       30.6427174864  TIP3      89              0.0000000000
      8843       153  TIP3      H2             -9.1768233691      -14.2639119970       30.3191809116  TIP3      89              0.0000000000
      8844       154  TIP3      OH2           -17.1419462754       -9.1612059484       26.9499419928  TIP3      90              0.0000000000
      8845       154  TIP3      H1            -16.6054169155       -8.3978290147       26.6800164510  TIP3      90              0.0000000000
      8846       154  TIP3      H2            -17.9913792521       -8.9459929461       26.5452411613  TIP3      90              0.0000000000
      8847       155  TIP3      OH2           -15.6929685965      -11.5194491944       26.4200578159  TIP3      91              0.0000000000
      8848       155  TIP3      H1            -16.0267334606      -10.6077008548       26.5039516579  TIP3      91              0.0000000000
      8849       155  TIP3      H2            -16.4184471402      -12.0266908374       26.8347618539  TIP3      91              0.0000000000
      8850       156  TIP3      OH2           -15.2571604279       -7.3181777065       32.8541827997  TIP3      92              0.0000000000
      8851       156  TIP3      H1            -14.7642578292       -6.5473597933       32.5324099852  TIP3      92              0.0000000000
      8852       156  TIP3      H2            -14.6163452278       -7.6885526218       33.4888856398  TIP3      92              0.0000000000
      8853       157  TIP3      OH2           -17.0070481364       -6.5486756353       25.9034721186  TIP3      93              0.0000000000
      8854       157  TIP3      H1            -17.9659092760       -6.4385264614       26.0956396543  TIP3      93              0.0000000000
      8855       157  TIP3      H2            -16.6539271388       -5.7111363063       26.2561784382  TIP3      93              0.0000000000
      8856       158  TIP3      OH2           -11.7635816814      -11.3684989503       32.4177864587  TIP3      94              0.0000000000
      8857       158  TIP3      H1            -12.0308509934      -11.5396920167       33.3462114206  TIP3      94              0.0000000000
      8858       158  TIP3      H2            -11.1012641799      -12.0605156916       32.2514089548  TIP3      94              0.0000000000
      8859       159  TIP3      OH2            -8.8750943188       -6.7646825614       34.9062358208  TIP3      95              0.0000000000
      8860       159  TIP3      H1             -9.5913585544       -7.2473102319       34.4530867426  TIP3      95              0.0000000000
      8861       159  TIP3      H2             -8.7116243556       -6.0647748637       34.2362799429  TIP3      95              0.0000000000
      8862       160  TIP3      OH2           -20.8035681975      -19.5713706985       34.2045920880  TIP3      96              0.0000000000
      8863       160  TIP3      H1            -21.6707814462      -19.1490762149       34.3904759019  TIP3      96              0.0000000000
      8864       160  TIP3      H2            -20.9293250859      -20.3753008629       34.7325622245  TIP3      96              0.0000000000
      8865       161  TIP3      OH2            -8.6177373887      -11.7648796837       23.7156065135  TIP3      97              0.0000000000
      8866       161  TIP3      H1             -8.8402222282      -12.4823155031       24.3379950256  TIP3      97              0.0000000000
      8867       161  TIP3      H2             -7.6855388171      -11.5828066938       23.9197666968  TIP3      97              0.0000000000
      8868       162  TIP3      OH2           -21.2374345405       -7.7562510341       32.7918626524  TIP3      98              0.0000000000
      8869       162  TIP3      H1            -20.8445749681       -8.6410024633       32.7245212471  TIP3      98              0.0000000000
      8870       162  TIP3      H2            -20.8724757635       -7.4433604044       33.6225230916  TIP3      98              0.0000000000
      8871       163  TIP3      OH2           -16.5289820196       -9.6268160950       22.4813650595  TIP3      99              0.0000000000
      8872       163  TIP3      H1            -16.1806758026      -10.1476281481       23.2140993913  TIP3      99              0.0000000000
      8873       163  TIP3      H2            -16.4821108033       -8.6966509648       22.7775900640  TIP3      99              0.0000000000
      8874       164  TIP3      OH2           -12.0492197082      -19.7331648307       33.2935838626  TIP3      100             0.0000000000
      8875       164  TIP3      H1            -11.3703019924      -19.6862540527       33.9724723119  TIP3      100             0.0000000000
      8876       164  TIP3      H2            -12.4428178891      -20.6071262957       33.5129160388  TIP3      100             0.0000000000
      8877       165  TIP3      OH2           -11.2033434789      -20.2537915987       24.3708041958  TIP3      101             0.0000000000
      8878       165  TIP3      H1            -11.1985497661      -19.6853998399       23.5934568597  TIP3      101             0.0000000000
      8879       165  TIP3      H2            -10.8236938160      -19.6602257466       25.0389332743  TIP3      101             0.0000000000
      8880       166  TIP3      OH2           -13.6041280065       -7.9511387161       23.1660588979  TIP3      102             0.0000000000
      8881       166  TIP3      H1            -14.4906065536       -7.5414759215       23.2561600759  TIP3      102             0.0000000000
      8882       166  TIP3      H2            -13.1516890258       -7.4638990775       22.4926053335  TIP3      102             0.0000000000
      8883       167  TIP3      OH2           -14.1226624344      -18.4178355644       25.1833464589  TIP3      103             0.0000000000
      8884       167  TIP3      H1            -13.3537918577      -17.8288741331       25.2512225546  TIP3      103             0.0000000000
      8885       167  TIP3      H2            -14.4141435939      -18.5877701495       26.0980737602  TIP3      103             0.0000000000
      8886       168  TIP3      OH2           -13.5429579092      -17.3813688422       34.3860394636  TIP3      104             0.0000000000
      8887       168  TIP3      H1            -13.4389514244      -16.8163052068       35.1773297061  TIP3      104             0.0000000000
      8888       168  TIP3      H2            -12.8811015373      -18.0819525640       34.4636178854  TIP3      104             0.0000000000
      8889       169  TIP3      OH2           -13.2369950679      -21.3648845627       26.1451333943  TIP3      105             0.0000000000
      8890       169  TIP3      H1            -13.6867054000      -20.6684769838       26.6367265680  TIP3      105             0.0000000000
      8891       169  TIP3      H2            -12.6559451991      -20.8324090742       25.5682543923  TIP3      105             0.0000000000
      8892       170  TIP3      OH2           -16.1440648939       -6.9419007750       23.2716989286  TIP3      106             0.0000000000
      8893       170  TIP3      H1            -16.1546345995       -6.1292819263       22.7184129039  TIP3      106             0.0000000000
      8894       170  TIP3      H2            -16.5694996370       -6.6337623432       24.1026428394  TIP3      106             0.0000000000
      8895       171  TIP3      OH2            -7.4030683957      -19.5153458364       35.2033467997  TIP3      107             0.0000000000
      8896       171  TIP3      H1             -8.3358611971      -19.2197445131       35.0746656753  TIP3      107             0.0000000000
      8897       171  TIP3      H2             -7.1157158959      -19.5799354217       34.2760286566  TIP3      107             0.0000000000
      8898       172  TIP3      OH2            -8.7632159388      -15.7377951702       29.1839293237  TIP3      108             0.0000000000
      8899       172  TIP3      H1             -9.6009043810      -16.1943259209       28.9669043717  TIP3      108             0.0000000000
      8900       172  TIP3      H2             -8.2928020408      -16.4001444329       29.7391739060  TIP3      108             0.0000000000
      8901       173  TIP3      OH2            -7.7152775699       -6.4470735624       30.8805526761  TIP3      109             0.0000000000
      8902       173  TIP3      H1             -7.7874795918       -5.7783494126       30.1706147401  TIP3      109             0.0000000000
      8903       173  TIP3      H2             -6.7511202866       -6.4183113421       31.0561065687  TIP3      109             0.0000000000
      8904       174  TIP3      OH2           -20.1577789785      -22.2592897810       29.6142558746  TIP3      110             0.0000000000
      8905       174  TIP3      H1            -20.4234448885      -22.3111831340       28.6685015735  TIP3      110             0.0000000000
      8906       174  TIP3      H2            -20.5683403086      -23.0848508912       29.9430819975  TIP3      110             0.0000000000
      8907       175  TIP3      OH2           -21.3014705080       -8.4071382164       25.9109331608  TIP3      111             0.0000000000
      8908       175  TIP3      H1            -22.1449559356       -7.9548414805       25.8327028618  TIP3      111             0.0000000000
      8909       175  TIP3      H2            -20.8369076595       -8.0465327656       25.1425668315  TIP3      111             0.0000000000
      8910       176  TIP3      OH2           -21.9979444847       -5.7563648311       37.1290081999  TIP3      112             0.0000000000
      8911       176  TIP3      H1            -21.4611036283       -6.0332833003       37.8882977851  TIP3      112             0.0000000000
      8912       176  TIP3      H2            -22.4641151087       -6.5926392400       36.9765104332  TIP3      112             0.0000000000
      8913       177  TIP3      OH2           -17.3932153858       -6.8411198554       38.7045182204  TIP3      113             0.0000000000
      8914       177  TIP3      H1            -16.6471546048       -7.3480269546       39.0627586385  TIP3      113             0.0000000000
      8915       177  TIP3      H2            -17.4354108436       -7.1931398849       37.7888083181  TIP3      113             0.0000000000
      8916       178  TIP3      OH2           -10.9188275127       -8.4602238173       37.5092847172  TIP3      114             0.0000000000
      8917       178  TIP3      H1            -11.2269713307       -9.3492386414       37.7885116244  TIP3      114             0.0000000000
      8918       178  TIP3      H2            -10.1309130403       -8.3439262716       38.0762709890  TIP3      114             0.0000000000
      8919       179  TIP3      OH2           -21.9999937427      -11.9580452206       38.0943656594  TIP3      115             0.0000000000
      8920       179  TIP3      H1            -21.9813128959      -12.9105999415       37.8997660523  TIP3      115             0.0000000000
      8921       179  TIP3      H2            -22.8898863669      -11.7538328294       37.7358789548  TIP3      115             0.0000000000
      8922       180  TIP3      OH2           -17.8041391582      -11.6945496681       20.1021837518  TIP3      116             0.0000000000
      8923       180  TIP3      H1            -17.5677412115      -12.3845003439       20.7275891227  TIP3      116             0.0000000000
      8924       180  TIP3      H2            -17.0874983869      -11.7708340338       19.4581093685  TIP3      116             0.0000000000
      8925       181  TIP3      OH2           -15.4556740883      -12.0157887964       37.5016789302  TIP3      117             0.0000000000
      8926       181  TIP3      H1            -15.7833725615      -11.6766624186       36.6451153445  TIP3      117             0.0000000000
      8927       181  TIP3      H2            -15.4077614416      -12.9926058014       37.3791664804  TIP3      117             0.0000000000
      8928       182  TIP3      OH2            -9.7766276197      -12.1783111960       34.9132155899  TIP3      118             0.0000000000
      8929       182  TIP3      H1             -8.9672968965      -11.6209405430       34.8814623643  TIP3      118             0.0000000000
      8930       182  TIP3      H2            -10.4499955383      -11.4803877630       34.9306332809  TIP3      118             0.0000000000
      8931       183  TIP3      OH2           -21.4646582239      -14.8383798443       37.5254060515  TIP3      119             0.0000000000
      8932       183  TIP3      H1            -20.7933642230      -15.5217654554       37.4023850463  TIP3      119             0.0000000000
      8933       183  TIP3      H2            -21.3902648524      -14.7122477980       38.4857396584  TIP3      119             0.0000000000
      8934       184  TIP3      OH2           -16.5690648811      -13.6594692101       22.5646741848  TIP3      120             0.0000000000
      8935       184  TIP3      H1            -17.0689580322      -14.1879663457       23.2151328319  TIP3      120             0.0000000000
      8936       184  TIP3      H2            -16.2608327296      -14.3383842414       21.9429985820  TIP3      120             0.0000000000
      8937       185  TIP3      OH2           -17.3275485047      -15.8065511267       34.8438556614  TIP3      121             0.0000000000
      8938       185  TIP3      H1            -17.9587894772      -15.1033547752       35.0857586236  TIP3      121             0.0000000000
      8939       185  TIP3      H2            -16.9234035351      -15.4300370491       34.0423163927  TIP3      121             0.0000000000
      8940       186  TIP3      OH2           -12.2447821419      -13.2471066165       38.2150457789  TIP3      122             0.0000000000
      8941       186  TIP3      H1            -11.2948339773      -13.2905371189       38.0488363575  TIP3      122             0.0000000000
      8942       186  TIP3      H2            -12.4204089561      -14.0285515822       38.7660589049  TIP3      122             0.0000000000
      8943       187  TIP3      OH2           -16.8689562861      -18.2691120605       35.6575068984  TIP3      123             0.0000000000
      8944       187  TIP3      H1            -16.7821259506      -18.9112176253       34.9144728600  TIP3      123             0.0000000000
      8945       187  TIP3      H2            -16.9521907595      -17.4336415530       35.1405044008  TIP3      123             0.0000000000
      8946       188  TIP3      OH2           -16.5608097073      -19.8155335246       33.5199348256  TIP3      124             0.0000000000
      8947       188  TIP3      H1            -16.0213125918      -19.5393928043       32.7365624755  TIP3      124             0.0000000000
      8948       188  TIP3      H2            -17.4151251750      -20.0580952209       33.0928070732  TIP3      124             0.0000000000
      8949       189  TIP3      OH2           -15.0029045916      -14.5487507304       33.7203226535  TIP3      125             0.0000000000
      8950       189  TIP3      H1            -14.2455932646      -14.7305361444       33.1555055916  TIP3      125             0.0000000000
      8951       189  TIP3      H2            -15.3765674460      -13.7328946421       33.3502578200  TIP3      125             0.0000000000
      8952       190  TIP3      OH2           -10.6099285731      -16.8550251706       38.6422276186  TIP3      126             0.0000000000
      8953       190  TIP3      H1            -10.3564674633      -17.7881647107       38.5721113190  TIP3      126             0.0000000000
      8954       190  TIP3      H2             -9.7532707313      -16.3991235075       38.7058235382  TIP3      126             0.0000000000
      8955       191  TIP3      OH2            -9.2399698868      -14.0297469396       36.8782560247  TIP3      127             0.0000000000
      8956       191  TIP3      H1             -9.5056589437      -13.3299657766       36.2421415865  TIP3      127             0.0000000000
      8957       191  TIP3      H2             -8.2825249269      -14.0635965295       36.6798319822  TIP3      127             0.0000000000
      8958       192  TIP3      OH2           -18.4102561672      -17.2619237904       37.8532604017  TIP3      128             0.0000000000
      8959       192  TIP3      H1            -19.2255102345      -17.7778851585       37.6839337432  TIP3      128             0.0000000000
      8960       192  TIP3      H2            -17.8844261892      -17.4472509684       37.0536664010  TIP3      128             0.0000000000
      8961       193  TIP3      OH2           -16.5974562027      -22.3251059895       33.9286712455  TIP3      129             0.0000000000
      8962       193  TIP3      H1            -16.0828682499      -21.5133364781       33.6993028586  TIP3      129             0.0000000000
      8963       193  TIP3      H2            -16.5290858129      -22.9061938899       33.1732059515  TIP3      129             0.0000000000
      8964       194  TIP3      OH2           -14.4134829819      -18.3932438069       37.5079301380  TIP3      130             0.0000000000
      8965       194  TIP3      H1            -14.7560593694      -18.5194909976       38.4123906155  TIP3      130             0.0000000000
      8966       194  TIP3      H2            -15.1832273299      -18.3871380275       36.9216162316  TIP3      130             0.0000000000
      8967       195  TIP3      OH2           -11.7632226716      -19.2167229097       36.5921302266  TIP3      131             0.0000000000
      8968       195  TIP3      H1            -12.7152506403      -19.1074424965       36.7355495537  TIP3      131             0.0000000000
      8969       195  TIP3      H2            -11.4882019452      -19.8012876157       37.3261829777  TIP3      131             0.0000000000
      8970       196  TIP3      OH2           -10.1463769394      -20.4508396641       38.4803437658  TIP3      132             0.0000000000
      8971       196  TIP3      H1            -10.2102771434      -21.4289196842       38.4557981933  TIP3      132             0.0000000000
      8972       196  TIP3      H2            -10.4081501804      -20.2177911575       39.3925328295  TIP3      132             0.0000000000
      8973       197  TIP3      OH2           -20.1022058219      -19.3097359044       37.6443827665  TIP3      133             0.0000000000
      8974       197  TIP3      H1            -20.2107308700      -20.0473496529       37.0111879513  TIP3      133             0.0000000000
      8975       197  TIP3      H2            -20.4721038454      -19.7032285461       38.4629606929  TIP3      133             0.0000000000
      8976       198  TIP3      OH2           -15.2826510571       24.2329175439       36.1234577928  TIP3      134             0.0000000000
      8977       198  TIP3      H1            -14.7029493089       23.4678730673       36.2855381989  TIP3      134             0.0000000000
      8978       198  TIP3      H2            -15.7164777424       23.9550630508       35.2871215536  TIP3      134             0.0000000000
      8979       199  TIP3      OH2           -15.0647524652      -21.5810572135       38.6548256649  TIP3      135             0.0000000000
      8980       199  TIP3      H1            -15.2708776746      -22.0948229653       37.8477180913  TIP3      135             0.0000000000
      8981       199  TIP3      H2            -15.7004211856      -20.8722064559       38.7357233945  TIP3      135             0.0000000000
      8982       200  TIP3      OH2           -15.6603808524       -4.6878304106       21.8840216807  TIP3      136             0.0000000000
      8983       200  TIP3      H1            -14.7182691676       -4.6244770888       21.7878438037  TIP3      136             0.0000000000
      8984       200  TIP3      H2            -15.9821758749       -4.1787369587       21.1291893371  TIP3      136             0.0000000000
      8985       201  TIP3      OH2            23.6046369012       -5.0068613475       26.0566971884  TIP3      137             0.0000000000
      8986       201  TIP3      H1             22.6868469877       -5.1949298419       25.8554032434  TIP3      137             0.0000000000
      8987       201  TIP3      H2             23.7201877511       -5.4126819187       26.9439537346  TIP3      137             0.0000000000
      8988       202  TIP3      OH2           -22.5164886906       -6.6149546999       28.1280086605  TIP3      138             0.0000000000
      8989       202  TIP3      H1            -22.8187422632       -7.4988435859       28.3656211243  TIP3      138             0.0000000000
      8990       202  TIP3      H2            -22.2531991908       -6.2367899161       28.9945902695  TIP3      138             0.0000000000
      8991       203  TIP3      OH2            -4.9901440778       -5.8190306040       31.0735549449  TIP3      139             0.0000000000
      8992       203  TIP3      H1             -4.9500549443       -5.6868809051       32.0368392442  TIP3      139             0.0000000000
      8993       203  TIP3      H2             -4.2883986522       -5.2293084613       30.7822450146  TIP3      139             0.0000000000
      8994       204  TIP3      OH2            -5.4297360708       -6.2333269861       34.0254589011  TIP3      140             0.0000000000
      8995       204  TIP3      H1             -5.8990695030       -6.9983334553       33.6365312946  TIP3      140             0.0000000000
      8996       204  TIP3      H2             -4.9788210283       -6.6804172849       34.7613633265  TIP3      140             0.0000000000
      8997       205  TIP3      OH2            -6.9836889232      -10.5227863823       38.7244275043  TIP3      141             0.0000000000
      8998       205  TIP3      H1             -7.8974094826      -10.5275225835       39.0733279460  TIP3      141             0.0000000000
      8999       205  TIP3      H2             -6.6163579789       -9.7019252802       39.1083460602  TIP3      141             0.0000000000
      9000       206  TIP3      OH2            -5.5936184213      -12.2667935571       24.0646078828  TIP3      142             0.0000000000
      9001       206  TIP3      H1             -4.7958366777      -11.7883430203       24.3376068038  TIP3      142             0.0000000000
      9002       206  TIP3      H2             -5.6933466632      -12.8770455225       24.8296403477  TIP3      142             0.0000000000
      9003       207  TIP3      OH2            -5.2778990680      -14.0788090675       26.0068695053  TIP3      143             0.0000000000
      9004       207  TIP3      H1             -6.0652494836      -14.5605136185       26.3489193746  TIP3      143             0.0000000000
      9005       207  TIP3      H2             -4.7343316661      -13.9904733804       26.8093366694  TIP3      143             0.0000000000
      9006       208  TIP3      OH2            -5.5524094873      -11.4222074733       31.0185573317  TIP3      144             0.0000000000
      9007       208  TIP3      H1             -4.7575910824      -11.8191231539       30.6182248123  TIP3      144             0.0000000000
      9008       208  TIP3      H2             -5.4039843899      -10.4734767771       30.8384120512  TIP3      144             0.0000000000
      9009       209  TIP3      OH2            -6.9927988906       -8.5079647114       33.2709625644  TIP3      145             0.0000000000
      9010       209  TIP3      H1             -7.6809284049       -8.1528853530       33.8542343369  TIP3      145             0.0000000000
      9011       209  TIP3      H2             -7.5339490072       -8.8903518350       32.5495144116  TIP3      145             0.0000000000
      9012       210  TIP3      OH2            -4.9895962683      -14.3394715563       22.3869350365  TIP3      146             0.0000000000
      9013       210  TIP3      H1             -5.5691266061      -13.9700034015       21.7238872490  TIP3      146             0.0000000000
      9014       210  TIP3      H2             -5.0456263857      -13.6159315614       23.0490787525  TIP3      146             0.0000000000
      9015       211  TIP3      OH2            -7.4698462447      -15.6382663450       26.5925459908  TIP3      147             0.0000000000
      9016       211  TIP3      H1             -7.6287237517      -16.5925641368       26.5547153443  TIP3      147             0.0000000000
      9017       211  TIP3      H2             -7.7822123020      -15.4411612758       27.4989937149  TIP3      147             0.0000000000
      9018       212  TIP3      OH2           -22.5044860499      -13.5358017317       30.7069647877  TIP3      148             0.0000000000
      9019       212  TIP3      H1            -22.3777710454      -13.6133025295       29.7353306579  TIP3      148             0.0000000000
      9020       212  TIP3      H2            -21.5814118550      -13.6879509186       31.0034524867  TIP3      148             0.0000000000
      9021       213  TIP3      OH2            -6.6033244330      -13.6699960249       36.3137703988  TIP3      149             0.0000000000
      9022       213  TIP3      H1             -5.9985045026      -14.4333803849       36.4195276593  TIP3      149             0.0000000000
      9023       213  TIP3      H2             -5.9963598358      -12.8994124930       36.2942548744  TIP3      149             0.0000000000
      9024       214  TIP3      OH2            -5.1122187597      -15.8176506496       36.9426070196  TIP3      150             0.0000000000
      9025       214  TIP3      H1             -6.0056137482      -16.1986185298       36.8032382923  TIP3      150             0.0000000000
      9026       214  TIP3      H2             -4.5492699932      -16.6150165191       36.8801673505  TIP3      150             0.0000000000
      9027       215  TIP3      OH2            -7.8281928203      -18.0158240952       25.0362271846  TIP3      151             0.0000000000
      9028       215  TIP3      H1             -7.5515232681      -18.9475060511       25.1930818977  TIP3      151             0.0000000000
      9029       215  TIP3      H2             -6.9919805007      -17.6552407788       24.7051860334  TIP3      151             0.0000000000
      9030       216  TIP3      OH2            -7.1845356915      -17.4876448418       30.4977013944  TIP3      152             0.0000000000
      9031       216  TIP3      H1             -6.2163516371      -17.3014213696       30.4860085762  TIP3      152             0.0000000000
      9032       216  TIP3      H2             -7.3573016799      -17.3854511111       31.4451542002  TIP3      152             0.0000000000
      9033       217  TIP3      OH2            -7.1162120507      -16.7745692751       33.2742904342  TIP3      153             0.0000000000
      9034       217  TIP3      H1             -8.0035085693      -16.4965452131       33.5858742321  TIP3      153             0.0000000000
      9035       217  TIP3      H2             -6.6791991958      -15.9226462459       33.0521633662  TIP3      153             0.0000000000
      9036       218  TIP3      OH2           -22.3415262214      -18.5593758459       36.1513875076  TIP3      154             0.0000000000
      9037       218  TIP3      H1            -21.7021047428      -18.3940451454       36.8569663708  TIP3      154             0.0000000000
      9038       218  TIP3      H2            -23.0422461383      -18.9160960446       36.7168165731  TIP3      154             0.0000000000
      9039       219  TIP3      OH2            -4.7596699381      -22.6753508426       38.7237458721  TIP3      155             0.0000000000
      9040       219  TIP3      H1             -4.6117827682      -23.4023391554       38.0778634680  TIP3      155             0.0000000000
      9041       219  TIP3      H2             -4.7966111052      -21.9265684731       38.0971688791  TIP3      155             0.0000000000
      9042       220  TIP3      OH2            -7.1734836095      -20.7207790001       25.1422756916  TIP3      156             0.0000000000
      9043       220  TIP3      H1             -6.9051152944      -21.1880258617       25.9689398115  TIP3      156             0.0000000000
      9044       220  TIP3      H2             -7.7297031913      -21.4027473924       24.7014856153  TIP3      156             0.0000000000
      9045       221  TIP3      OH2           -21.7671574143      -19.9362594520       29.8796372841  TIP3      157             0.0000000000
      9046       221  TIP3      H1            -21.2275397543      -20.7490274703       29.9629584744  TIP3      157             0.0000000000
      9047       221  TIP3      H2            -21.1111331192      -19.2438947765       30.0406082782  TIP3      157             0.0000000000
      9048       222  TIP3      OH2           -23.3949032126      -16.6781103993       30.4522791057  TIP3      158             0.0000000000
      9049       222  TIP3      H1            -22.7428807942      -17.1884635722       29.9459750273  TIP3      158             0.0000000000
      9050       222  TIP3      H2            -22.8114560698      -16.0570410525       30.8921459364  TIP3      158             0.0000000000
      9051       223  TIP3      OH2            -5.3185933022      -20.6671916590       36.9352985551  TIP3      159             0.0000000000
      9052       223  TIP3      H1             -6.2554629159      -20.3905480357       36.9170361146  TIP3      159             0.0000000000
      9053       223  TIP3      H2             -5.3476478207      -21.2513041651       36.1601033879  TIP3      159             0.0000000000
      9054       224  TIP3      OH2           -22.6836180161      -20.9529622994       25.0268345738  TIP3      160             0.0000000000
      9055       224  TIP3      H1            -23.5840444083      -20.6163319627       25.1372803419  TIP3      160             0.0000000000
      9056       224  TIP3      H2            -22.3500561929      -20.3926704119       24.2912625355  TIP3      160             0.0000000000
      9057       225  TIP3      OH2            -8.3118053149       -5.7198249569       26.6716922199  TIP3      161             0.0000000000
      9058       225  TIP3      H1             -7.6109196520       -6.0258956142       26.0642735671  TIP3      161             0.0000000000
      9059       225  TIP3      H2             -7.8030433820       -5.2268657037       27.3345861982  TIP3      161             0.0000000000
      9060       226  TIP3      OH2            23.8196864770      -21.7572965467       33.0664988524  TIP3      162             0.0000000000
      9061       226  TIP3      H1             23.2922064088      -21.9416941115       33.8474900228  TIP3      162             0.0000000000
      9062       226  TIP3      H2             23.2873933508      -21.2304163437       32.4548207086  TIP3      162             0.0000000000
      9063       227  TIP3      OH2           -20.8357093077       -8.7778575093       37.3019872627  TIP3      163             0.0000000000
      9064       227  TIP3      H1            -21.6712645600       -8.7444006977       36.8266078522  TIP3      163             0.0000000000
      9065       227  TIP3      H2            -21.0939894134       -9.0211934860       38.1986320282  TIP3      163             0.0000000000
      9066       228  TIP3      OH2           -17.9626818318       -7.8236718310       33.4942180832  TIP3      164             0.0000000000
      9067       228  TIP3      H1            -18.2483311186       -6.9239679170       33.2588986130  TIP3      164             0.0000000000
      9068       228  TIP3      H2            -17.0235025162       -7.7596361039       33.2133590839  TIP3      164             0.0000000000
      9069       229  TIP3      OH2           -13.6275627429       -6.4088343068       36.3990427647  TIP3      165             0.0000000000
      9070       229  TIP3      H1            -13.5149620983       -6.7535094513       37.3113198611  TIP3      165             0.0000000000
      9071       229  TIP3      H2            -12.7137385997       -6.1082924703       36.1827733659  TIP3      165             0.0000000000
      9072       230  TIP3      OH2           -11.3274693654       -5.1414609048       35.7272916453  TIP3      166             0.0000000000
      9073       230  TIP3      H1            -10.5793075991       -5.7001980702       35.4832344106  TIP3      166             0.0000000000
      9074       230  TIP3      H2            -10.9634041680       -4.6845735090       36.5152266758  TIP3      166             0.0000000000
      9075       231  TIP3      OH2            -6.3704962742      -22.5416886911       34.8549499846  TIP3      167             0.0000000000
      9076       231  TIP3      H1             -7.1589747638      -22.1663843496       34.4360380579  TIP3      167             0.0000000000
      9077       231  TIP3      H2             -6.1877038807      -23.3501989450       34.3568244848  TIP3      167             0.0000000000
      9078       232  TIP3      OH2           -20.6043414806       -4.6692476224       33.4627440736  TIP3      168             0.0000000000
      9079       232  TIP3      H1            -21.2779244789       -4.0666012619       33.0711600998  TIP3      168             0.0000000000
      9080       232  TIP3      H2            -20.8756947129       -4.7086456067       34.3804710635  TIP3      168             0.0000000000
      9081       233  TIP3      OH2           -18.0345156101       -4.9896118485       32.5835097791  TIP3      169             0.0000000000
      9082       233  TIP3      H1            -18.9330611975       -4.8339437399       32.9479066545  TIP3      169             0.0000000000
      9083       233  TIP3      H2            -18.0719286652       -4.4402426427       31.7808953450  TIP3      169             0.0000000000
      9084       234  TIP3      OH2           -13.3204229426       -5.1170675699       31.7214000032  TIP3      170             0.0000000000
      9085       234  TIP3      H1            -13.7937807977       -4.5554969844       31.0884628774  TIP3      170             0.0000000000
      9086       234  TIP3      H2            -13.1989418259       -4.4936830532       32.4749442244  TIP3      170             0.0000000000
      9087       235  TIP3      OH2           -11.0728531193       -6.3496764081       32.8222650588  TIP3      171             0.0000000000
      9088       235  TIP3      H1            -11.8845110004       -6.0300313010       32.3914798426  TIP3      171             0.0000000000
      9089       235  TIP3      H2            -10.5367140486       -5.5462189547       32.7250333806  TIP3      171             0.0000000000
      9090       236  TIP3      OH2            -8.4782715440       -4.7617593834       32.9749383580  TIP3      172             0.0000000000
      9091       236  TIP3      H1             -8.4735311506       -3.8000830416       32.7564900336  TIP3      172             0.0000000000
      9092       236  TIP3      H2             -8.2607387577       -5.1355942098       32.0970420787  TIP3      172             0.0000000000
      9093       237  TIP3      OH2           -21.0367273030       -5.9779670456       30.3834758830  TIP3      173             0.0000000000
      9094       237  TIP3      H1            -21.0690788389       -6.3963229622       31.2624212554  TIP3      173             0.0000000000
      9095       237  TIP3      H2            -20.2092961731       -6.3366536872       30.0119075747  TIP3      173             0.0000000000
      9096       238  TIP3      OH2           -18.9792888040       -7.2567669895       29.0821729874  TIP3      174             0.0000000000
      9097       238  TIP3      H1            -19.1109473865       -8.1910081382       29.3403965545  TIP3      174             0.0000000000
      9098       238  TIP3      H2            -18.1303161143       -7.0604078027       29.5280872664  TIP3      174             0.0000000000
      9099       239  TIP3      OH2           -16.3455028272       -6.7655995482       30.0033551449  TIP3      175             0.0000000000
      9100       239  TIP3      H1            -16.2053030284       -7.6877242823       29.7231650038  TIP3      175             0.0000000000
      9101       239  TIP3      H2            -16.3272335889       -6.8529033859       30.9678097746  TIP3      175             0.0000000000
      9102       240  TIP3      OH2           -12.9798941322      -20.9943526490       29.1311527085  TIP3      176             0.0000000000
      9103       240  TIP3      H1            -13.5957005986      -21.7100439190       29.3953499102  TIP3      176             0.0000000000
      9104       240  TIP3      H2            -12.3481897052      -21.5145814291       28.6107767677  TIP3      176             0.0000000000
      9105       241  TIP3      OH2            -7.6119366161      -22.4824726385       29.3621752851  TIP3      177             0.0000000000
      9106       241  TIP3      H1             -7.0815157836      -22.3737552418       28.5451479417  TIP3      177             0.0000000000
      9107       241  TIP3      H2             -8.5044318152      -22.7375695556       29.0504690124  TIP3      177             0.0000000000
      9108       242  TIP3      OH2            -6.0763168844      -21.7482586365       27.3221063331  TIP3      178             0.0000000000
      9109       242  TIP3      H1             -5.4307087295      -22.4017684064       27.0279942049  TIP3      178             0.0000000000
      9110       242  TIP3      H2             -5.5324802769      -20.9556941200       27.5377308773  TIP3      178             0.0000000000
      9111       243  TIP3      OH2           -20.4722647393      -22.5795816093       27.0059958269  TIP3      179             0.0000000000
      9112       243  TIP3      H1            -21.2627303243      -22.6143884075       26.4517849803  TIP3      179             0.0000000000
      9113       243  TIP3      H2            -20.0741536064      -23.4466000245       26.8800377243  TIP3      179             0.0000000000
      9114       244  TIP3      OH2           -16.0858390307      -22.3797607046       26.6938389476  TIP3      180             0.0000000000
      9115       244  TIP3      H1            -15.1493078043      -22.1397971182       26.6204192450  TIP3      180             0.0000000000
      9116       244  TIP3      H2            -16.0902417186      -22.9369009724       27.4837628846  TIP3      180             0.0000000000
      9117       245  TIP3      OH2           -10.4521520056      -22.5147631837       28.3159480692  TIP3      181             0.0000000000
      9118       245  TIP3      H1            -10.3437199209      -22.4177068121       27.3692289529  TIP3      181             0.0000000000
      9119       245  TIP3      H2            -10.6259011903      -23.4546672591       28.4409613405  TIP3      181             0.0000000000
      9120       246  TIP3      OH2            -9.0015968514      -22.3959985080       24.1175553843  TIP3      182             0.0000000000
      9121       246  TIP3      H1             -9.7653421144      -21.8085388094       23.9483320682  TIP3      182             0.0000000000
      9122       246  TIP3      H2             -9.3654593769      -23.1343322981       24.6085228225  TIP3      182             0.0000000000
      9123       247  TIP3      OH2           -21.8259296673       -6.7307605466       23.6758081524  TIP3      183             0.0000000000
      9124       247  TIP3      H1            -22.5510511106       -6.7789592726       23.0465506978  TIP3      183             0.0000000000
      9125       247  TIP3      H2            -21.7661584374       -5.7698709345       23.7856611517  TIP3      183             0.0000000000
      9126       248  TIP3      OH2            -6.3567388040       -5.9296870279       24.7283017765  TIP3      184             0.0000000000
      9127       248  TIP3      H1             -6.4693050897       -6.7631124496       24.2045556923  TIP3      184             0.0000000000
      9128       248  TIP3      H2             -6.3489273869       -5.2611943872       24.0077630038  TIP3      184             0.0000000000
      9129       249  TIP3      OH2           -20.5725038018      -21.8247849792       36.3701746799  TIP3      185             0.0000000000
      9130       249  TIP3      H1            -21.0648458685      -22.6296914717       36.6795565649  TIP3      185             0.0000000000
      9131       249  TIP3      H2            -19.7273371308      -21.9865176733       36.8231424611  TIP3      185             0.0000000000
      9132       250  TIP3      OH2           -18.5481203095      -22.5754123264       38.0485196140  TIP3      186             0.0000000000
      9133       250  TIP3      H1            -17.7011608291      -23.0215122178       37.8964386963  TIP3      186             0.0000000000
      9134       250  TIP3      H2            -19.0623977486      -23.3299032018       38.4008093810  TIP3      186             0.0000000000
      9135       251  TIP3      OH2           -10.1554819456       23.5955310297       38.1679743650  TIP3      187             0.0000000000
      9136       251  TIP3      H1            -10.2764459327       22.9551751880       38.8827113267  TIP3      187             0.0000000000
      9137       251  TIP3      H2             -9.2613681077       23.4530959410       37.8341259028  TIP3      187             0.0000000000
      9138       252  TIP3      OH2            -7.0426156481       -7.2085651760       36.8167679213  TIP3      188             0.0000000000
      9139       252  TIP3      H1             -7.8385025163       -7.3335093119       36.2552960674  TIP3      188             0.0000000000
      9140       252  TIP3      H2             -7.1644536548       -6.2647901355       37.0408024347  TIP3      188             0.0000000000
      9141       253  TIP3      OH2             7.4080259176      -13.3429356675       26.7998460137  TIP3      189             0.0000000000
      9142       253  TIP3      H1              7.3985355894      -12.3599594892       26.7743257708  TIP3      189             0.0000000000
      9143       253  TIP3      H2              6.6735511256      -13.5532536431       26.2138409622  TIP3      189             0.0000000000
      9144       254  TIP3      OH2             6.2649335768      -14.1045161410       30.2976939401  TIP3      190             0.0000000000
      9145       254  TIP3      H1              6.2458625238      -14.7226209088       31.0450475337  TIP3      190             0.0000000000
      9146       254  TIP3      H2              5.8584893283      -14.6280721824       29.5861577999  TIP3      190             0.0000000000
      9147       255  TIP3      OH2            -1.3931827643      -14.3908899270       31.8565977415  TIP3      191             0.0000000000
      9148       255  TIP3      H1             -1.3206132446      -15.0956952205       32.5350622910  TIP3      191             0.0000000000
      9149       255  TIP3      H2             -0.6359459827      -13.8361684358       32.0984900249  TIP3      191             0.0000000000
      9150       256  TIP3      OH2             9.9157742071      -11.1390931066       28.6033779983  TIP3      192             0.0000000000
      9151       256  TIP3      H1              9.5269752978      -11.8576932799       29.1071656758  TIP3      192             0.0000000000
      9152       256  TIP3      H2              9.9747429666      -10.4462568356       29.2834732285  TIP3      192             0.0000000000
      9153       257  TIP3      OH2            -0.4826568059       -9.9473371034       30.2580569846  TIP3      193             0.0000000000
      9154       257  TIP3      H1             -0.7727516063      -10.8631306910       30.0752649852  TIP3      193             0.0000000000
      9155       257  TIP3      H2              0.4680588541      -10.1106334994       30.4002448402  TIP3      193             0.0000000000
      9156       258  TIP3      OH2            -3.7958332893      -16.4018336941       25.7527219223  TIP3      194             0.0000000000
      9157       258  TIP3      H1             -4.3085361917      -15.5805981760       25.8383600899  TIP3      194             0.0000000000
      9158       258  TIP3      H2             -4.4216241903      -16.9610034158       25.2810156462  TIP3      194             0.0000000000
      9159       259  TIP3      OH2            -3.0715675598      -14.1513170437       28.0276099578  TIP3      195             0.0000000000
      9160       259  TIP3      H1             -2.8347550013      -15.0020456245       28.4490645621  TIP3      195             0.0000000000
      9161       259  TIP3      H2             -2.4289455156      -14.1048376167       27.3135442369  TIP3      195             0.0000000000
      9162       260  TIP3      OH2             7.0034962583       -6.0271139776       28.8082121613  TIP3      196             0.0000000000
      9163       260  TIP3      H1              7.7151690835       -6.6544636387       28.5400571274  TIP3      196             0.0000000000
      9164       260  TIP3      H2              6.8510060742       -6.3189886754       29.7040771776  TIP3      196             0.0000000000
      9165       261  TIP3      OH2             4.6278545438      -11.7133414836       30.8306476523  TIP3      197             0.0000000000
      9166       261  TIP3      H1              4.9569110732      -12.3151108624       30.1434703515  TIP3      197             0.0000000000
      9167       261  TIP3      H2              5.4628087905      -11.5357546047       31.3034167547  TIP3      197             0.0000000000
      9168       262  TIP3      OH2            13.2660636577      -20.1100537146       31.5176597179  TIP3      198             0.0000000000
      9169       262  TIP3      H1             13.4094746133      -19.4851372485       32.2683493390  TIP3      198             0.0000000000
      9170       262  TIP3      H2             13.7823428049      -19.6541047513       30.8360322960  TIP3      198             0.0000000000
      9171       263  TIP3      OH2             7.7999559636      -17.2529102008       31.1343469345  TIP3      199             0.0000000000
      9172       263  TIP3      H1              7.9749151763      -18.2099408230       31.1416544249  TIP3      199             0.0000000000
      9173       263  TIP3      H2              7.7033025712      -17.0996775620       30.1743669345  TIP3      199             0.0000000000
      9174       264  TIP3      OH2             0.8607339545      -19.0796063153       28.2977685458  TIP3      200             0.0000000000
      9175       264  TIP3      H1              1.0343858082      -18.2767301146       27.7693075325  TIP3      200             0.0000000000
      9176       264  TIP3      H2              0.5507480233      -19.7144588122       27.6196159428  TIP3      200             0.0000000000
      9177       265  TIP3      OH2             8.6649687404      -19.1455028555       26.6851026987  TIP3      201             0.0000000000
      9178       265  TIP3      H1              9.2955145985      -19.3866730764       27.4080454581  TIP3      201             0.0000000000
      9179       265  TIP3      H2              9.1944831637      -18.4982841704       26.1888292099  TIP3      201             0.0000000000
      9180       266  TIP3      OH2            -2.4932917799      -16.7312519657       29.0480906633  TIP3      202             0.0000000000
      9181       266  TIP3      H1             -1.8030240309      -17.2419403377       29.5070109573  TIP3      202             0.0000000000
      9182       266  TIP3      H2             -2.3529400560      -17.0106006191       28.1274454505  TIP3      202             0.0000000000
      9183       267  TIP3      OH2             2.6709472160      -15.1619379977       28.4369233633  TIP3      203             0.0000000000
      9184       267  TIP3      H1              3.3783831406      -15.7458693822       28.7599274527  TIP3      203             0.0000000000
      9185       267  TIP3      H2              2.1833321146      -15.7981103932       27.8760558573  TIP3      203             0.0000000000
      9186       268  TIP3      OH2            13.6802496800      -18.5935571149       33.7526450984  TIP3      204             0.0000000000
      9187       268  TIP3      H1             13.0651586370      -17.8361612397       33.6520347650  TIP3      204             0.0000000000
      9188       268  TIP3      H2             13.7050719880      -18.6861464626       34.7121321221  TIP3      204             0.0000000000
      9189       269  TIP3      OH2            -0.2113777065      -20.2159311913       32.3198732187  TIP3      205             0.0000000000
      9190       269  TIP3      H1             -0.4874452258      -19.6067400968       31.5947789444  TIP3      205             0.0000000000
      9191       269  TIP3      H2             -0.8607083026      -19.9832708545       33.0334781366  TIP3      205             0.0000000000
      9192       270  TIP3      OH2             7.0759244863      -10.7580969121       25.9080992615  TIP3      206             0.0000000000
      9193       270  TIP3      H1              6.8596333046      -10.9863366441       24.9975451379  TIP3      206             0.0000000000
      9194       270  TIP3      H2              6.8302191344       -9.8069437396       25.9677200999  TIP3      206             0.0000000000
      9195       271  TIP3      OH2             2.3172574437      -12.5907006736       32.5642818993  TIP3      207             0.0000000000
      9196       271  TIP3      H1              1.6339538513      -11.9412814891       32.8306655970  TIP3      207             0.0000000000
      9197       271  TIP3      H2              3.0376539606      -11.9983274801       32.2943934218  TIP3      207             0.0000000000
      9198       272  TIP3      OH2            10.4131658393      -19.6445683999       28.6986301314  TIP3      208             0.0000000000
      9199       272  TIP3      H1             10.2707277818      -20.4588086245       29.2052778367  TIP3      208             0.0000000000
      9200       272  TIP3      H2             11.1453029700      -19.2620912087       29.1981705084  TIP3      208             0.0000000000
      9201       273  TIP3      OH2            -0.5900912820      -18.3309145238       30.3865380748  TIP3      209             0.0000000000
      9202       273  TIP3      H1              0.0547959369      -17.6590600321       30.6966782710  TIP3      209             0.0000000000
      9203       273  TIP3      H2             -0.0876420400      -18.7695443034       29.6465553081  TIP3      209             0.0000000000
      9204       274  TIP3      OH2             0.7914174900      -10.5650534608       33.3930914006  TIP3      210             0.0000000000
      9205       274  TIP3      H1              0.7313830367       -9.6456829524       33.0767274979  TIP3      210             0.0000000000
      9206       274  TIP3      H2             -0.0869128652      -10.6612434657       33.8418348963  TIP3      210             0.0000000000
      9207       275  TIP3      OH2            -3.1916670663      -10.8991922545       24.2149962061  TIP3      211             0.0000000000
      9208       275  TIP3      H1             -3.3991052642      -10.6534333392       23.2967289159  TIP3      211             0.0000000000
      9209       275  TIP3      H2             -3.3024072137      -10.0453683190       24.6621420235  TIP3      211             0.0000000000
      9210       276  TIP3      OH2            10.4618039663       -9.2627648296       30.9601559677  TIP3      212             0.0000000000
      9211       276  TIP3      H1              9.4945289745       -9.1426517000       31.0812355798  TIP3      212             0.0000000000
      9212       276  TIP3      H2             10.7257918402       -8.3477815085       30.7361617398  TIP3      212             0.0000000000
      9213       277  TIP3      OH2            10.8586782421      -21.0253017982       32.4731405167  TIP3      213             0.0000000000
      9214       277  TIP3      H1             10.0788044540      -20.4974965299       32.2370877632  TIP3      213             0.0000000000
      9215       277  TIP3      H2             11.5038557422      -20.6484987204       31.8494394516  TIP3      213             0.0000000000
      9216       278  TIP3      OH2             3.9299127604      -22.6417855398       29.9001755114  TIP3      214             0.0000000000
      9217       278  TIP3      H1              3.7989803435      -23.6049725762       29.8190761526  TIP3      214             0.0000000000
      9218       278  TIP3      H2              3.0259730376      -22.3391748002       30.0529389179  TIP3      214             0.0000000000
      9219       279  TIP3      OH2             8.7203113123       -7.5303972520       27.5269905923  TIP3      215             0.0000000000
      9220       279  TIP3      H1              9.1568774984       -8.2473131037       27.0205459006  TIP3      215             0.0000000000
      9221       279  TIP3      H2              9.2280155626       -6.7462830971       27.2127862096  TIP3      215             0.0000000000
      9222       280  TIP3      OH2             9.9327277866       -9.6005356412       26.0187336263  TIP3      216             0.0000000000
      9223       280  TIP3      H1              9.6486513326      -10.3178490668       25.4365271825  TIP3      216             0.0000000000
      9224       280  TIP3      H2              9.9829132993      -10.0774662178       26.8696592104  TIP3      216             0.0000000000
      9225       281  TIP3      OH2            11.5326599130      -10.9683389998       34.5592780475  TIP3      217             0.0000000000
      9226       281  TIP3      H1             11.6998790107      -11.6499631530       33.8709493801  TIP3      217             0.0000000000
      9227       281  TIP3      H2             11.7678119961      -10.1491221776       34.0856532371  TIP3      217             0.0000000000
      9228       282  TIP3      OH2             6.0516762865      -14.1178882446       24.2994544735  TIP3      218             0.0000000000
      9229       282  TIP3      H1              5.3742364391      -13.4874318543       24.0186582534  TIP3      218             0.0000000000
      9230       282  TIP3      H2              6.7900612632      -13.9429478489       23.7112312082  TIP3      218             0.0000000000
      9231       283  TIP3      OH2            13.4462210780      -14.6594569330       32.5774000181  TIP3      219             0.0000000000
      9232       283  TIP3      H1             12.8056976020      -13.9197076976       32.6099092467  TIP3      219             0.0000000000
      9233       283  TIP3      H2             13.9713098860      -14.4157074584       31.7909971085  TIP3      219             0.0000000000
      9234       284  TIP3      OH2             9.5125217021      -13.9059531902       25.2567245292  TIP3      220             0.0000000000
      9235       284  TIP3      H1              8.8020871209      -13.6631248029       25.8875922730  TIP3      220             0.0000000000
      9236       284  TIP3      H2             10.0240743532      -14.5566647168       25.7733113183  TIP3      220             0.0000000000
      9237       285  TIP3      OH2             9.4417839665      -15.7331545504       34.3929214885  TIP3      221             0.0000000000
      9238       285  TIP3      H1              9.4336034836      -14.8970477043       34.8855669373  TIP3      221             0.0000000000
      9239       285  TIP3      H2              8.8258419669      -15.4627292706       33.6829869846  TIP3      221             0.0000000000
      9240       286  TIP3      OH2             1.1011867398      -13.2245686040       27.1571648757  TIP3      222             0.0000000000
      9241       286  TIP3      H1              0.8369555540      -13.6682129832       26.3191537625  TIP3      222             0.0000000000
      9242       286  TIP3      H2              1.7328005706      -13.8938154222       27.5237306731  TIP3      222             0.0000000000
      9243       287  TIP3      OH2             2.4036179139       -9.8957756260       29.8095824808  TIP3      223             0.0000000000
      9244       287  TIP3      H1              2.4701459338      -10.4003829038       28.9994589390  TIP3      223             0.0000000000
      9245       287  TIP3      H2              3.2011410380      -10.1995439572       30.2874021933  TIP3      223             0.0000000000
      9246       288  TIP3      OH2             1.4250319250      -14.4829996067       30.8480070602  TIP3      224             0.0000000000
      9247       288  TIP3      H1              1.9629317141      -14.4138319641       30.0329470768  TIP3      224             0.0000000000
      9248       288  TIP3      H2              1.8444332812      -13.8081931759       31.4277246555  TIP3      224             0.0000000000
      9249       289  TIP3      OH2             7.8925040973       -8.8856881557       31.5512603364  TIP3      225             0.0000000000
      9250       289  TIP3      H1              7.5961413318       -8.2272356672       32.1935211377  TIP3      225             0.0000000000
      9251       289  TIP3      H2              7.6357297614       -9.7371511378       31.9670794365  TIP3      225             0.0000000000
      9252       290  TIP3      OH2             2.4023503001      -10.0494617930       35.5232504793  TIP3      226             0.0000000000
      9253       290  TIP3      H1              1.9475060075       -9.3406297046       36.0279091538  TIP3      226             0.0000000000
      9254       290  TIP3      H2              1.7478544153      -10.2670442695       34.8194629970  TIP3      226             0.0000000000
      9255       291  TIP3      OH2            -0.6414875244      -13.8967635401       34.6269922769  TIP3      227             0.0000000000
      9256       291  TIP3      H1             -0.5780156189      -13.2610529067       35.3645537021  TIP3      227             0.0000000000
      9257       291  TIP3      H2             -1.6026467848      -13.8641985209       34.4838151208  TIP3      227             0.0000000000
      9258       292  TIP3      OH2             6.0934487404       -7.9573600143       26.3983361983  TIP3      228             0.0000000000
      9259       292  TIP3      H1              6.5672417109       -7.6435268186       27.1878542884  TIP3      228             0.0000000000
      9260       292  TIP3      H2              5.5536862685       -7.1942820285       26.1600421699  TIP3      228             0.0000000000
      9261       293  TIP3      OH2             0.6628043913       -8.0422390028       36.2639123509  TIP3      229             0.0000000000
      9262       293  TIP3      H1              0.5709313903       -8.1130835447       35.2968790199  TIP3      229             0.0000000000
      9263       293  TIP3      H2             -0.2590629440       -8.1865630937       36.5515096022  TIP3      229             0.0000000000
      9264       294  TIP3      OH2            12.0753785701      -22.8638151345       22.8556193077  TIP3      230             0.0000000000
      9265       294  TIP3      H1             11.1640097755      -22.7205361919       23.1650193813  TIP3      230             0.0000000000
      9266       294  TIP3      H2             12.3657533973      -21.9961518043       22.5098694738  TIP3      230             0.0000000000
      9267       295  TIP3      OH2             0.0725452104      -14.2184272840       24.7999666235  TIP3      231             0.0000000000
      9268       295  TIP3      H1             -0.2197668696      -13.4350184663       24.3197663119  TIP3      231             0.0000000000
      9269       295  TIP3      H2             -0.6191135034      -14.8795858788       24.6535511887  TIP3      231             0.0000000000
      9270       296  TIP3      OH2            -3.8238077800      -11.7787030868       33.7107102223  TIP3      232             0.0000000000
      9271       296  TIP3      H1             -4.2635630710      -11.8642032031       32.8463806169  TIP3      232             0.0000000000
      9272       296  TIP3      H2             -3.7122835715      -12.7260982235       33.9226547755  TIP3      232             0.0000000000
      9273       297  TIP3      OH2            -4.0362361521       -9.0484666013       30.3960148230  TIP3      233             0.0000000000
      9274       297  TIP3      H1             -3.0867955649       -9.1719976283       30.4729826616  TIP3      233             0.0000000000
      9275       297  TIP3      H2             -4.1510715799       -8.2479936766       30.9263713316  TIP3      233             0.0000000000
      9276       298  TIP3      OH2            14.2066885109       -8.3572206017       36.2308271085  TIP3      234             0.0000000000
      9277       298  TIP3      H1             14.0421710207       -9.3049656735       36.1330929252  TIP3      234             0.0000000000
      9278       298  TIP3      H2             13.3126686986       -8.0712271514       36.5383181523  TIP3      234             0.0000000000
      9279       299  TIP3      OH2             5.1290540937       -8.8138398230       35.0159386971  TIP3      235             0.0000000000
      9280       299  TIP3      H1              5.1763919897       -7.9682292873       35.5218055623  TIP3      235             0.0000000000
      9281       299  TIP3      H2              4.2580586112       -9.1824612233       35.2592875340  TIP3      235             0.0000000000
      9282       300  TIP3      OH2             5.5960192472       -5.0698201946       24.7768506413  TIP3      236             0.0000000000
      9283       300  TIP3      H1              5.5274357795       -5.0574029097       23.8103230944  TIP3      236             0.0000000000
      9284       300  TIP3      H2              5.6062613083       -4.1180999728       25.0051907618  TIP3      236             0.0000000000
      9285       301  TIP3      OH2            -0.7644531920       -6.2352972900       26.6409954265  TIP3      237             0.0000000000
      9286       301  TIP3      H1             -0.6471405006       -6.5529682008       27.5636248453  TIP3      237             0.0000000000
      9287       301  TIP3      H2             -1.6683562375       -6.5346514213       26.4597524003  TIP3      237             0.0000000000
      9288       302  TIP3      OH2             8.4752113159       -5.9708065069       21.8049942791  TIP3      238             0.0000000000
      9289       302  TIP3      H1              9.0962573305       -6.5344065505       21.2910221688  TIP3      238             0.0000000000
      9290       302  TIP3      H2              8.7220618707       -6.1495740256       22.7237715577  TIP3      238             0.0000000000
      9291       303  TIP3      OH2             8.2878585290       -5.8571043909       24.6595242011  TIP3      239             0.0000000000
      9292       303  TIP3      H1              7.3373017467       -5.8157384936       24.8489472294  TIP3      239             0.0000000000
      9293       303  TIP3      H2              8.5611589834       -6.6610431710       25.1222033679  TIP3      239             0.0000000000
      9294       304  TIP3      OH2            11.3067854802      -16.8664289081       36.6046934991  TIP3      240             0.0000000000
      9295       304  TIP3      H1             10.8168772489      -16.4201680068       35.8937621399  TIP3      240             0.0000000000
      9296       304  TIP3      H2             11.2771677771      -17.7874080254       36.3049848320  TIP3      240             0.0000000000
      9297       305  TIP3      OH2            -1.5185932773      -10.4776315546       34.6258354620  TIP3      241             0.0000000000
      9298       305  TIP3      H1             -1.3142202891      -10.8234940161       35.5208517838  TIP3      241             0.0000000000
      9299       305  TIP3      H2             -2.3963066442      -10.8608828058       34.4175382211  TIP3      241             0.0000000000
      9300       306  TIP3      OH2             1.1616152808      -21.4186591914       30.4177611220  TIP3      242             0.0000000000
      9301       306  TIP3      H1              0.3166925507      -21.8516132184       30.1399454108  TIP3      242             0.0000000000
      9302       306  TIP3      H2              0.8424799635      -20.9568449889       31.2131010429  TIP3      242             0.0000000000
      9303       307  TIP3      OH2             5.8055496500      -22.0561681406       34.1559241609  TIP3      243             0.0000000000
      9304       307  TIP3      H1              6.2687985056      -22.7220864047       34.6705729173  TIP3      243             0.0000000000
      9305       307  TIP3      H2              4.9234323653      -22.4273216628       34.1230214929  TIP3      243             0.0000000000
      9306       308  TIP3      OH2             9.0579793500      -18.5138766488       34.8282742464  TIP3      244             0.0000000000
      9307       308  TIP3      H1              8.4871027419      -18.6958348378       35.6081310771  TIP3      244             0.0000000000
      9308       308  TIP3      H2              8.9022200312      -17.5770593268       34.6040824972  TIP3      244             0.0000000000
      9309       309  TIP3      OH2             1.2491310850      -16.9997094547       31.8326477681  TIP3      245             0.0000000000
      9310       309  TIP3      H1              0.5308590340      -17.0034241992       32.4915019043  TIP3      245             0.0000000000
      9311       309  TIP3      H2              1.1985155190      -16.0926430318       31.4516319445  TIP3      245             0.0000000000
      9312       310  TIP3      OH2             1.2083130994      -16.8840500561       26.6487012301  TIP3      246             0.0000000000
      9313       310  TIP3      H1              0.2681074883      -17.1582194628       26.5822997601  TIP3      246             0.0000000000
      9314       310  TIP3      H2              1.5661924784      -17.2299652416       25.8065908349  TIP3      246             0.0000000000
      9315       311  TIP3      OH2             6.6749673595      -16.4372674721       25.3610135447  TIP3      247             0.0000000000
      9316       311  TIP3      H1              6.3565531073      -15.5382144275       25.1263949568  TIP3      247             0.0000000000
      9317       311  TIP3      H2              7.4629373501      -16.5304775271       24.8256244870  TIP3      247             0.0000000000
      9318       312  TIP3      OH2             5.7597698488      -16.1854408528       36.8804902738  TIP3      248             0.0000000000
      9319       312  TIP3      H1              5.2696371101      -16.9979563050       37.1657635749  TIP3      248             0.0000000000
      9320       312  TIP3      H2              6.6036900476      -16.2711981271       37.3570161864  TIP3      248             0.0000000000
      9321       313  TIP3      OH2             7.7863519836      -16.8740087104       28.3011400391  TIP3      249             0.0000000000
      9322       313  TIP3      H1              7.4830490837      -16.3222462273       27.5636664175  TIP3      249             0.0000000000
      9323       313  TIP3      H2              7.8550628305      -17.7394622536       27.8633337234  TIP3      249             0.0000000000
      9324       314  TIP3      OH2            -1.1278343237      -16.7610289470       33.4729508774  TIP3      250             0.0000000000
      9325       314  TIP3      H1             -0.9982587292      -16.3643986916       34.3508247012  TIP3      250             0.0000000000
      9326       314  TIP3      H2             -1.5573461049      -17.6000024122       33.7021200954  TIP3      250             0.0000000000
      9327       315  TIP3      OH2             2.2129599570      -19.3755619969       20.3716793073  TIP3      251             0.0000000000
      9328       315  TIP3      H1              1.7580277213      -19.8035297706       21.1147769285  TIP3      251             0.0000000000
      9329       315  TIP3      H2              1.5217453475      -19.0116221466       19.8247332043  TIP3      251             0.0000000000
      9330       316  TIP3      OH2            -4.4388474450      -19.6563109617       27.5232605432  TIP3      252             0.0000000000
      9331       316  TIP3      H1             -3.7332541994      -19.6580877602       28.1993180448  TIP3      252             0.0000000000
      9332       316  TIP3      H2             -4.0168831937      -20.0381348069       26.7314434006  TIP3      252             0.0000000000
      9333       317  TIP3      OH2            -3.1667086192      -18.8489364692       22.9697744146  TIP3      253             0.0000000000
      9334       317  TIP3      H1             -2.7502883318      -18.3958968744       22.2385138692  TIP3      253             0.0000000000
      9335       317  TIP3      H2             -3.9356292018      -18.2832065583       23.1524375971  TIP3      253             0.0000000000
      9336       318  TIP3      OH2             6.9304080514      -15.3310565210       32.8136428456  TIP3      254             0.0000000000
      9337       318  TIP3      H1              7.3456472365      -16.0302660041       32.2595642316  TIP3      254             0.0000000000
      9338       318  TIP3      H2              6.4645247369      -15.8526028310       33.4925314499  TIP3      254             0.0000000000
      9339       319  TIP3      OH2             3.7607260745      -19.2698174627       27.7268195772  TIP3      255             0.0000000000
      9340       319  TIP3      H1              2.8300977040      -19.4091041411       27.9904866142  TIP3      255             0.0000000000
      9341       319  TIP3      H2              4.2339906347      -19.5575901057       28.5267192807  TIP3      255             0.0000000000
      9342       320  TIP3      OH2            -1.4446945259      -17.7778546030       26.5307264413  TIP3      256             0.0000000000
      9343       320  TIP3      H1             -2.3358885001      -17.6799759506       26.1289320214  TIP3      256             0.0000000000
      9344       320  TIP3      H2             -1.1697466997      -18.6632673692       26.2145763276  TIP3      256             0.0000000000
      9345       321  TIP3      OH2             2.1578993480      -17.7232622362       24.2114859146  TIP3      257             0.0000000000
      9346       321  TIP3      H1              3.1160118073      -17.7418979108       24.3965124894  TIP3      257             0.0000000000
      9347       321  TIP3      H2              2.0716636525      -17.0390955260       23.5505515409  TIP3      257             0.0000000000
      9348       322  TIP3      OH2             8.1981177925      -20.2031096020       30.9384411793  TIP3      258             0.0000000000
      9349       322  TIP3      H1              7.5133763707      -20.0755711263       31.6260990465  TIP3      258             0.0000000000
      9350       322  TIP3      H2              7.6939792444      -20.4418817415       30.1481147382  TIP3      258             0.0000000000
      9351       323  TIP3      OH2            11.3766173871       -4.4799615391       37.2421171601  TIP3      259             0.0000000000
      9352       323  TIP3      H1             11.6196262745       -4.0596507264       36.3939609681  TIP3      259             0.0000000000
      9353       323  TIP3      H2             12.0856006858       -4.0946454445       37.7849551828  TIP3      259             0.0000000000
      9354       324  TIP3      OH2            -0.9663104941      -11.9973650991       36.8456113994  TIP3      260             0.0000000000
      9355       324  TIP3      H1             -0.2338136046      -11.7543472101       37.4381210621  TIP3      260             0.0000000000
      9356       324  TIP3      H2             -1.7267496930      -11.9631991040       37.4643547347  TIP3      260             0.0000000000
      9357       325  TIP3      OH2             5.0423046193      -16.5853404817       29.5957088542  TIP3      261             0.0000000000
      9358       325  TIP3      H1              5.6517246311      -17.1163823315       29.0740798384  TIP3      261             0.0000000000
      9359       325  TIP3      H2              4.8614021666      -17.1604731063       30.3533317519  TIP3      261             0.0000000000
      9360       326  TIP3      OH2             0.0033522240      -20.4016501391       25.9488782963  TIP3      262             0.0000000000
      9361       326  TIP3      H1             -0.3016287188      -21.3177434894       26.0835601450  TIP3      262             0.0000000000
      9362       326  TIP3      H2              0.8505420001      -20.5588532887       25.5045195426  TIP3      262             0.0000000000
      9363       327  TIP3      OH2             3.7181363316      -18.2405938108       31.9298138208  TIP3      263             0.0000000000
      9364       327  TIP3      H1              2.8814052236      -17.7396310300       32.0494042834  TIP3      263             0.0000000000
      9365       327  TIP3      H2              4.2493831366      -17.9191323736       32.6842723495  TIP3      263             0.0000000000
      9366       328  TIP3      OH2             4.1983864585      -12.0144631051       23.6639957002  TIP3      264             0.0000000000
      9367       328  TIP3      H1              3.4415850860      -12.5550357737       23.4293408993  TIP3      264             0.0000000000
      9368       328  TIP3      H2              4.0748604288      -11.8827997366       24.6321203538  TIP3      264             0.0000000000
      9369       329  TIP3      OH2            11.5009285839      -12.8133632443       32.5019647236  TIP3      265             0.0000000000
      9370       329  TIP3      H1             12.0262003230      -12.3039128556       31.8489875679  TIP3      265             0.0000000000
      9371       329  TIP3      H2             10.6274818678      -12.8117714121       32.0607686401  TIP3      265             0.0000000000
      9372       330  TIP3      OH2             5.7641975774      -11.7274763024       34.9449840838  TIP3      266             0.0000000000
      9373       330  TIP3      H1              5.4123190047      -12.1869428837       35.7151288771  TIP3      266             0.0000000000
      9374       330  TIP3      H2              5.4938715594      -10.8144030290       35.0901442659  TIP3      266             0.0000000000
      9375       331  TIP3      OH2            -0.6060750880      -12.6192018246       29.4764439923  TIP3      267             0.0000000000
      9376       331  TIP3      H1              0.0812104665      -12.7694060843       28.8090219602  TIP3      267             0.0000000000
      9377       331  TIP3      H2             -0.5606007502      -13.4445194725       29.9978258760  TIP3      267             0.0000000000
      9378       332  TIP3      OH2             6.3190206636      -10.5782857833       22.7769862262  TIP3      268             0.0000000000
      9379       332  TIP3      H1              6.0404395510       -9.7354240922       23.1458706227  TIP3      268             0.0000000000
      9380       332  TIP3      H2              5.5764311736      -11.1698225703       22.9964221404  TIP3      268             0.0000000000
      9381       333  TIP3      OH2            -3.6278277063      -14.2494418513       34.7593281290  TIP3      269             0.0000000000
      9382       333  TIP3      H1             -3.4867393915      -14.7003384708       35.6165474887  TIP3      269             0.0000000000
      9383       333  TIP3      H2             -4.2550008913      -14.8397563314       34.3016117629  TIP3      269             0.0000000000
      9384       334  TIP3      OH2             3.3870845356      -14.6728803219       36.9121173053  TIP3      270             0.0000000000
      9385       334  TIP3      H1              3.0461641235      -15.0326088359       36.0777939115  TIP3      270             0.0000000000
      9386       334  TIP3      H2              4.2987333592      -15.0287435679       36.9116820191  TIP3      270             0.0000000000
      9387       335  TIP3      OH2             8.0938689095       -9.3341444551       34.9215731919  TIP3      271             0.0000000000
      9388       335  TIP3      H1              7.1701975551       -9.1652816986       34.6702901899  TIP3      271             0.0000000000
      9389       335  TIP3      H2              8.0429145286       -9.0348618656       35.8509572449  TIP3      271             0.0000000000
      9390       336  TIP3      OH2            13.7267933943      -17.1794416890       23.3263551100  TIP3      272             0.0000000000
      9391       336  TIP3      H1             13.2209916379      -17.4789665419       22.5521756750  TIP3      272             0.0000000000
      9392       336  TIP3      H2             13.8440695119      -16.2426295825       23.0502092494  TIP3      272             0.0000000000
      9393       337  TIP3      OH2            13.7290791589      -11.3207296063       36.0650069341  TIP3      273             0.0000000000
      9394       337  TIP3      H1             12.8327067513      -11.0814827042       35.7197517365  TIP3      273             0.0000000000
      9395       337  TIP3      H2             14.2602289152      -11.3695478603       35.2413741984  TIP3      273             0.0000000000
      9396       338  TIP3      OH2            12.1065562170       -8.3694079093       23.6711015473  TIP3      274             0.0000000000
      9397       338  TIP3      H1             11.6287920101       -9.1518004045       23.9763773400  TIP3      274             0.0000000000
      9398       338  TIP3      H2             12.2635432631       -8.5294868425       22.7344368618  TIP3      274             0.0000000000
      9399       339  TIP3      OH2             9.2461121008      -13.5194141882       30.7899065199  TIP3      275             0.0000000000
      9400       339  TIP3      H1              8.3051904339      -13.7198688636       30.6589682885  TIP3      275             0.0000000000
      9401       339  TIP3      H2              9.6775866788      -14.2595435082       30.3207922457  TIP3      275             0.0000000000
      9402       340  TIP3      OH2             1.7198526468       -9.1996107641       26.7578470836  TIP3      276             0.0000000000
      9403       340  TIP3      H1              2.2730663495       -8.3982756553       26.7135648366  TIP3      276             0.0000000000
      9404       340  TIP3      H2              0.8716370666       -8.7831294444       26.6062267740  TIP3      276             0.0000000000
      9405       341  TIP3      OH2             3.0966769881      -11.4902741789       26.2565323444  TIP3      277             0.0000000000
      9406       341  TIP3      H1              2.8435562959      -10.5816442748       26.5078092102  TIP3      277             0.0000000000
      9407       341  TIP3      H2              2.5436302750      -12.0244811498       26.8603591850  TIP3      277             0.0000000000
      9408       342  TIP3      OH2             3.6058740104       -7.3243580431       32.8502417480  TIP3      278             0.0000000000
      9409       342  TIP3      H1              4.1028624844       -6.5509108441       32.5359473116  TIP3      278             0.0000000000
      9410       342  TIP3      H2              4.2406164188       -7.6919277561       33.4919125962  TIP3      278             0.0000000000
      9411       343  TIP3      OH2             1.8414281093       -6.5737620372       25.9526282190  TIP3      279             0.0000000000
      9412       343  TIP3      H1              0.8901912316       -6.3553358745       26.0811714167  TIP3      279             0.0000000000
      9413       343  TIP3      H2              2.2432454090       -5.7212258258       26.2098342248  TIP3      279             0.0000000000
      9414       344  TIP3      OH2             7.0946180204      -11.3636969404       32.4190549813  TIP3      280             0.0000000000
      9415       344  TIP3      H1              6.8248354169      -11.5390889522       33.3460357903  TIP3      280             0.0000000000
      9416       344  TIP3      H2              7.7537678209      -12.0581595270       32.2499753095  TIP3      280             0.0000000000
      9417       345  TIP3      OH2             9.9669666021       -6.7846206687       34.9340083648  TIP3      281             0.0000000000
      9418       345  TIP3      H1              9.2654905290       -7.2572699604       34.4457634771  TIP3      281             0.0000000000
      9419       345  TIP3      H2             10.1676470459       -6.0644583096       34.2862959128  TIP3      281             0.0000000000
      9420       346  TIP3      OH2            -1.9649542014      -19.5886865944       34.3101504376  TIP3      282             0.0000000000
      9421       346  TIP3      H1             -2.8510256032      -19.1953138691       34.3341726317  TIP3      282             0.0000000000
      9422       346  TIP3      H2             -2.1240082684      -20.4384509935       34.7578336661  TIP3      282             0.0000000000
      9423       347  TIP3      OH2            10.2224682742      -11.6201733396       23.7878896945  TIP3      283             0.0000000000
      9424       347  TIP3      H1             10.0032909624      -12.4432784226       24.2691790070  TIP3      283             0.0000000000
      9425       347  TIP3      H2             11.1867761514      -11.6202157937       23.8991446993  TIP3      283             0.0000000000
      9426       348  TIP3      OH2            -2.3750663062       -7.7511241669       32.7237751372  TIP3      284             0.0000000000
      9427       348  TIP3      H1             -2.0229324101       -8.6529811285       32.7420601499  TIP3      284             0.0000000000
      9428       348  TIP3      H2             -2.1097363465       -7.4265994310       33.5925852754  TIP3      284             0.0000000000
      9429       349  TIP3      OH2             2.3981401504       -9.7238453517       22.4640676117  TIP3      285             0.0000000000
      9430       349  TIP3      H1              2.6486752084      -10.2015716356       23.2635062134  TIP3      285             0.0000000000
      9431       349  TIP3      H2              2.4116941628       -8.7951388712       22.7234579582  TIP3      285             0.0000000000
      9432       350  TIP3      OH2             6.7967956443      -19.7247691511       33.3041736642  TIP3      286             0.0000000000
      9433       350  TIP3      H1              7.5071978764      -19.6895746424       33.9528963242  TIP3      286             0.0000000000
      9434       350  TIP3      H2              6.4113796482      -20.6083133001       33.5067924247  TIP3      286             0.0000000000
      9435       351  TIP3      OH2             4.7029727407      -18.4100147746       25.2012270086  TIP3      287             0.0000000000
      9436       351  TIP3      H1              5.4956209828      -17.8362427040       25.2670603833  TIP3      287             0.0000000000
      9437       351  TIP3      H2              4.4351309731      -18.5464176672       26.1363159082  TIP3      287             0.0000000000
      9438       352  TIP3      OH2             5.3193733463      -17.3474318124       34.3619134756  TIP3      288             0.0000000000
      9439       352  TIP3      H1              5.3591789071      -16.8228455030       35.1886417420  TIP3      288             0.0000000000
      9440       352  TIP3      H2              5.9316290327      -18.0888218486       34.4795364895  TIP3      288             0.0000000000
      9441       353  TIP3      OH2             5.5864261221      -21.3141995013       26.0388679064  TIP3      289             0.0000000000
      9442       353  TIP3      H1              5.1989674047      -20.7347542621       26.7217653097  TIP3      289             0.0000000000
      9443       353  TIP3      H2              6.2574272008      -20.7321146162       25.6678952776  TIP3      289             0.0000000000
      9444       354  TIP3      OH2             1.2900993307      -20.2208897652       22.7523865294  TIP3      290             0.0000000000
      9445       354  TIP3      H1              1.2372751805      -19.3660647684       23.2052680300  TIP3      290             0.0000000000
      9446       354  TIP3      H2              2.1775924658      -20.5100054085       23.0526238721  TIP3      290             0.0000000000
      9447       355  TIP3      OH2            11.4556595317      -19.5316735083       35.2340570874  TIP3      291             0.0000000000
      9448       355  TIP3      H1             10.5303464370      -19.2114356941       35.0852851537  TIP3      291             0.0000000000
      9449       355  TIP3      H2             11.7412262975      -19.5698207118       34.3000479100  TIP3      291             0.0000000000
      9450       356  TIP3      OH2            10.0739228216      -15.7220161464       29.2404547694  TIP3      292             0.0000000000
      9451       356  TIP3      H1              9.2695709510      -16.1863896695       28.9295798129  TIP3      292             0.0000000000
      9452       356  TIP3      H2             10.5796886284      -16.4166508377       29.7184767003  TIP3      292             0.0000000000
      9453       357  TIP3      OH2            -0.5693771216       -9.8607059059       21.8609264767  TIP3      293             0.0000000000
      9454       357  TIP3      H1              0.0237835265       -9.1641306603       22.1143933543  TIP3      293             0.0000000000
      9455       357  TIP3      H2             -0.0948419931      -10.2498491966       21.1011443779  TIP3      293             0.0000000000
      9456       358  TIP3      OH2            11.1405876591       -6.5006292001       30.8492647486  TIP3      294             0.0000000000
      9457       358  TIP3      H1             11.0292792340       -5.7672283826       30.2077231846  TIP3      294             0.0000000000
      9458       358  TIP3      H2             12.0914811035       -6.3963258993       31.0543042401  TIP3      294             0.0000000000
      9459       359  TIP3      OH2            -1.3769361081      -22.2552567891       29.6062633973  TIP3      295             0.0000000000
      9460       359  TIP3      H1             -1.6132072053      -22.3426944872       28.6609296812  TIP3      295             0.0000000000
      9461       359  TIP3      H2             -1.7103071587      -23.1090713025       29.9598009564  TIP3      295             0.0000000000
      9462       360  TIP3      OH2            -2.4345323571       -8.4492178660       25.7668580072  TIP3      296             0.0000000000
      9463       360  TIP3      H1             -3.3053332317       -8.0055499418       25.7633445098  TIP3      296             0.0000000000
      9464       360  TIP3      H2             -2.0412681685       -7.8909864469       25.0693109950  TIP3      296             0.0000000000
      9465       361  TIP3      OH2            -3.2514338140       -5.7749141651       37.1213217313  TIP3      297             0.0000000000
      9466       361  TIP3      H1             -2.6250016888       -5.9458853881       37.8525222778  TIP3      297             0.0000000000
      9467       361  TIP3      H2             -3.6098637748       -6.6629645359       36.9527971382  TIP3      297             0.0000000000
      9468       362  TIP3      OH2             1.4816567160       -6.8553306221       38.7219463318  TIP3      298             0.0000000000
      9469       362  TIP3      H1              2.2324879430       -7.3615786424       39.0671608016  TIP3      298             0.0000000000
      9470       362  TIP3      H2              1.4463664085       -7.1487696252       37.7911293986  TIP3      298             0.0000000000
      9471       363  TIP3      OH2             7.9273036693       -8.4658115636       37.5118789948  TIP3      299             0.0000000000
      9472       363  TIP3      H1              7.6264911711       -9.3559390647       37.7923131132  TIP3      299             0.0000000000
      9473       363  TIP3      H2              8.7208803269       -8.3450655525       38.0715647566  TIP3      299             0.0000000000
      9474       364  TIP3      OH2            -3.3473603303      -12.0198779743       38.1396281746  TIP3      300             0.0000000000
      9475       364  TIP3      H1             -3.1710816263      -12.9306891765       37.8441519991  TIP3      300             0.0000000000
      9476       364  TIP3      H2             -4.0580891178      -11.7568565754       37.5313262243  TIP3      300             0.0000000000
      9477       365  TIP3      OH2             1.0347778995      -11.6499004876       20.1420715344  TIP3      301             0.0000000000
      9478       365  TIP3      H1              1.2446722275      -12.3514428459       20.7490211496  TIP3      301             0.0000000000
      9479       365  TIP3      H2              1.7253691800      -11.6930156948       19.4634411775  TIP3      301             0.0000000000
      9480       366  TIP3      OH2             3.3984170367      -12.0116963163       37.5058327476  TIP3      302             0.0000000000
      9481       366  TIP3      H1              3.0744426956      -11.6732528120       36.6470357890  TIP3      302             0.0000000000
      9482       366  TIP3      H2              3.4464667368      -12.9898643806       37.3807194314  TIP3      302             0.0000000000
      9483       367  TIP3      OH2             9.0840311387      -12.1736190867       34.9130208702  TIP3      303             0.0000000000
      9484       367  TIP3      H1              9.8926910469      -11.6149295693       34.8820349707  TIP3      303             0.0000000000
      9485       367  TIP3      H2              8.4099264883      -11.4761895766       34.9309850909  TIP3      303             0.0000000000
      9486       368  TIP3      OH2            -2.3646901032      -14.7783964164       37.5188621050  TIP3      304             0.0000000000
      9487       368  TIP3      H1             -1.9387228894      -15.6395874272       37.4443101043  TIP3      304             0.0000000000
      9488       368  TIP3      H2             -2.5931694920      -14.7606481386       38.4622017877  TIP3      304             0.0000000000
      9489       369  TIP3      OH2             1.5047642141      -15.8667790002       34.8370967732  TIP3      305             0.0000000000
      9490       369  TIP3      H1              0.9210709387      -15.1339334954       35.0935132729  TIP3      305             0.0000000000
      9491       369  TIP3      H2              1.9350597136      -15.4788955541       34.0548349840  TIP3      305             0.0000000000
      9492       370  TIP3      OH2             6.6070738478      -13.2471876417       38.2202952903  TIP3      306             0.0000000000
      9493       370  TIP3      H1              7.5513312242      -13.3060195329       38.0316654594  TIP3      306             0.0000000000
      9494       370  TIP3      H2              6.4278489652      -14.0327035914       38.7639947595  TIP3      306             0.0000000000
      9495       371  TIP3      OH2            12.7403179433      -12.9988700118       20.2611616734  TIP3      307             0.0000000000
      9496       371  TIP3      H1             12.4810796694      -13.4123513537       19.4353348518  TIP3      307             0.0000000000
      9497       371  TIP3      H2             12.7555178168      -12.0708695814       19.9416819622  TIP3      307             0.0000000000
      9498       372  TIP3      OH2             1.9442689603      -18.4758640851       35.8869215304  TIP3      308             0.0000000000
      9499       372  TIP3      H1              2.0906875158      -19.1457814621       35.1926381248  TIP3      308             0.0000000000
      9500       372  TIP3      H2              1.8717067345      -17.6572789110       35.3560445673  TIP3      308             0.0000000000
      9501       373  TIP3      OH2             2.3117687673      -19.8366645951       33.4653602789  TIP3      309             0.0000000000
      9502       373  TIP3      H1              2.8340039329      -19.5354842474       32.6889747719  TIP3      309             0.0000000000
      9503       373  TIP3      H2              1.4350519745      -20.0525116639       33.0775486749  TIP3      309             0.0000000000
      9504       374  TIP3      OH2             3.8601680126      -14.5467535850       33.7106817149  TIP3      310             0.0000000000
      9505       374  TIP3      H1              4.6198197793      -14.7274555414       33.1474809799  TIP3      310             0.0000000000
      9506       374  TIP3      H2              3.4840876432      -13.7284127751       33.3467438826  TIP3      310             0.0000000000
      9507       375  TIP3      OH2             8.2417257620      -16.8403441176       38.6495309311  TIP3      311             0.0000000000
      9508       375  TIP3      H1              8.4795299123      -17.7732874915       38.5682323051  TIP3      311             0.0000000000
      9509       375  TIP3      H2              9.1067712380      -16.3982165566       38.7036294425  TIP3      311             0.0000000000
      9510       376  TIP3      OH2             9.6223254379      -14.0152957116       36.8868861633  TIP3      312             0.0000000000
      9511       376  TIP3      H1              9.3545451186      -13.3230159448       36.2426357222  TIP3      312             0.0000000000
      9512       376  TIP3      H2             10.5757747115      -14.0572315501       36.6791466851  TIP3      312             0.0000000000
      9513       377  TIP3      OH2             0.4067764021      -17.2283554942       37.8173351498  TIP3      313             0.0000000000
      9514       377  TIP3      H1             -0.3753306980      -17.7979170734       37.6753690127  TIP3      313             0.0000000000
      9515       377  TIP3      H2              1.0450771712      -17.6116694256       37.1844948486  TIP3      313             0.0000000000
      9516       378  TIP3      OH2             2.2427294261      -22.3389278062       33.9522353939  TIP3      314             0.0000000000
      9517       378  TIP3      H1              2.7272970506      -21.4927766750       33.7646094961  TIP3      314             0.0000000000
      9518       378  TIP3      H2              2.3362480528      -22.8772315876       33.1672245171  TIP3      314             0.0000000000
      9519       379  TIP3      OH2             4.3937587350      -18.3043405811       37.5012517729  TIP3      315             0.0000000000
      9520       379  TIP3      H1              4.0576363317      -18.5700033335       38.3790044327  TIP3      315             0.0000000000
      9521       379  TIP3      H2              3.6150631227      -18.4960400690       36.9467210467  TIP3      315             0.0000000000
      9522       380  TIP3      OH2             7.0832277165      -19.1943727589       36.6101638676  TIP3      316             0.0000000000
      9523       380  TIP3      H1              6.1217782830      -19.0960108931       36.7106054825  TIP3      316             0.0000000000
      9524       380  TIP3      H2              7.3002672414      -19.8054249410       37.3235507265  TIP3      316             0.0000000000
      9525       381  TIP3      OH2             8.9228414211      -20.4901629997       38.5766508333  TIP3      317             0.0000000000
      9526       381  TIP3      H1              8.6316149987      -21.4235056088       38.4529542407  TIP3      317             0.0000000000
      9527       381  TIP3      H2              8.4304011851      -20.1972864867       39.3742120918  TIP3      317             0.0000000000
      9528       382  TIP3      OH2            -1.5231824222      -19.2892792064       37.6138548892  TIP3      318             0.0000000000
      9529       382  TIP3      H1             -1.3008312307      -20.0362528468       37.0252159978  TIP3      318             0.0000000000
      9530       382  TIP3      H2             -1.6470927302      -19.7176707304       38.4814009833  TIP3      318             0.0000000000
      9531       383  TIP3      OH2             3.6541903198       24.1882587205       36.0916755228  TIP3      319             0.0000000000
      9532       383  TIP3      H1              4.1475311436       23.3833814836       36.2744110962  TIP3      319             0.0000000000
      9533       383  TIP3      H2              3.1268702758       23.9604700519       35.2999262827  TIP3      319             0.0000000000
      9534       384  TIP3      OH2             3.7427381050      -21.5613462415       38.6513049141  TIP3      320             0.0000000000
      9535       384  TIP3      H1              3.5590218392      -22.0320961825       37.8172239050  TIP3      320             0.0000000000
      9536       384  TIP3      H2              3.1190665460      -20.8175021122       38.6067178161  TIP3      320             0.0000000000
      9537       385  TIP3      OH2            -4.5412836806       -4.7779039591       26.2870433079  TIP3      321             0.0000000000
      9538       385  TIP3      H1             -5.2130263270       -5.2867259801       25.7736524036  TIP3      321             0.0000000000
      9539       385  TIP3      H2             -4.2412375583       -5.4230858364       26.9508212801  TIP3      321             0.0000000000
      9540       386  TIP3      OH2            -3.6272875195       -6.6591949437       28.1779877676  TIP3      322             0.0000000000
      9541       386  TIP3      H1             -4.0893449017       -7.4748434300       28.4225605359  TIP3      322             0.0000000000
      9542       386  TIP3      H2             -3.4635751005       -6.2645976998       29.0525910485  TIP3      322             0.0000000000
      9543       387  TIP3      OH2            13.9094588661       -5.8745418194       31.0795962038  TIP3      323             0.0000000000
      9544       387  TIP3      H1             13.8884444910       -5.6739670539       32.0317184748  TIP3      323             0.0000000000
      9545       387  TIP3      H2             14.5428043342       -5.2182097481       30.7754226421  TIP3      323             0.0000000000
      9546       388  TIP3      OH2            13.4524446009       -6.2462162097       34.0292333886  TIP3      324             0.0000000000
      9547       388  TIP3      H1             12.9552775074       -6.9871717493       33.6278209074  TIP3      324             0.0000000000
      9548       388  TIP3      H2             13.8893193015       -6.7082572622       34.7643762933  TIP3      324             0.0000000000
      9549       389  TIP3      OH2            11.8725280448      -10.5258759793       38.7244430123  TIP3      325             0.0000000000
      9550       389  TIP3      H1             10.9601254412      -10.5282721767       39.0709360596  TIP3      325             0.0000000000
      9551       389  TIP3      H2             12.2388182955       -9.7071758968       39.1065888468  TIP3      325             0.0000000000
      9552       390  TIP3      OH2            13.1880651230      -12.1776258673       24.1880739811  TIP3      326             0.0000000000
      9553       390  TIP3      H1             14.0762693611      -11.8136928585       24.3318857052  TIP3      326             0.0000000000
      9554       390  TIP3      H2             13.1985325205      -12.9287390418       24.8196409097  TIP3      326             0.0000000000
      9555       391  TIP3      OH2            13.5677446660      -14.0641423752       26.0532962533  TIP3      327             0.0000000000
      9556       391  TIP3      H1             12.7968570813      -14.5873527628       26.3748385114  TIP3      327             0.0000000000
      9557       391  TIP3      H2             14.1494345544      -14.0067589998       26.8313811671  TIP3      327             0.0000000000
      9558       392  TIP3      OH2            13.2974930236      -11.4282297613       31.0129908156  TIP3      328             0.0000000000
      9559       392  TIP3      H1             14.0979105314      -11.8154738056       30.6166664277  TIP3      328             0.0000000000
      9560       392  TIP3      H2             13.4651028038      -10.4757705333       30.8618556306  TIP3      328             0.0000000000
      9561       393  TIP3      OH2            11.8602779213       -8.4936830559       33.2662487410  TIP3      329             0.0000000000
      9562       393  TIP3      H1             11.1661816924       -8.1154705699       33.8283416985  TIP3      329             0.0000000000
      9563       393  TIP3      H2             11.3260696989       -8.8907925385       32.5452154653  TIP3      329             0.0000000000
      9564       394  TIP3      OH2            13.8379338565      -14.3737371369       22.4415207343  TIP3      330             0.0000000000
      9565       394  TIP3      H1             13.3719122854      -13.9760529976       21.6751942117  TIP3      330             0.0000000000
      9566       394  TIP3      H2             13.7523064044      -13.6313514650       23.0611711717  TIP3      330             0.0000000000
      9567       395  TIP3      OH2            12.1380065555      -17.0655286197       20.9258433452  TIP3      331             0.0000000000
      9568       395  TIP3      H1             12.3909391194      -16.4083801487       20.2647307199  TIP3      331             0.0000000000
      9569       395  TIP3      H2             12.1411708276      -17.8811857559       20.4183860422  TIP3      331             0.0000000000
      9570       396  TIP3      OH2            11.3769656664      -15.6015124070       26.6392249852  TIP3      332             0.0000000000
      9571       396  TIP3      H1             11.2391500866      -16.5578455513       26.5161875096  TIP3      332             0.0000000000
      9572       396  TIP3      H2             11.0598685066      -15.4606890172       27.5488073788  TIP3      332             0.0000000000
      9573       397  TIP3      OH2            -3.6263349459      -13.5427594269       30.6954017258  TIP3      333             0.0000000000
      9574       397  TIP3      H1             -3.4863741582      -13.6485561143       29.7330634970  TIP3      333             0.0000000000
      9575       397  TIP3      H2             -2.7233043571      -13.7422889916       31.0162158418  TIP3      333             0.0000000000
      9576       398  TIP3      OH2            12.2535050969      -13.6636521562       36.3016545838  TIP3      334             0.0000000000
      9577       398  TIP3      H1             12.8568730362      -14.4293027637       36.4189375746  TIP3      334             0.0000000000
      9578       398  TIP3      H2             12.8615437654      -12.8960325668       36.3010921685  TIP3      334             0.0000000000
      9579       399  TIP3      OH2            13.7452685423      -15.8175920088       36.9260706228  TIP3      335             0.0000000000
      9580       399  TIP3      H1             12.8497248635      -16.1998583566       36.8014851997  TIP3      335             0.0000000000
      9581       399  TIP3      H2             14.3046081016      -16.6165842646       36.8793981554  TIP3      335             0.0000000000
      9582       400  TIP3      OH2            11.0170670190      -18.0556742247       25.0860300122  TIP3      336             0.0000000000
      9583       400  TIP3      H1             11.3532237119      -18.9666305170       25.1977545805  TIP3      336             0.0000000000
      9584       400  TIP3      H2             11.7811590746      -17.6310666674       24.6674638543  TIP3      336             0.0000000000
      9585       401  TIP3      OH2            11.6745100207      -17.4925420284       30.4929150868  TIP3      337             0.0000000000
      9586       401  TIP3      H1             12.6419590879      -17.2991167694       30.4824220745  TIP3      337             0.0000000000
      9587       401  TIP3      H2             11.4997564910      -17.3849189234       31.4403218434  TIP3      337             0.0000000000
      9588       402  TIP3      OH2            11.7311578270      -16.7720101778       33.2757610814  TIP3      338             0.0000000000
      9589       402  TIP3      H1             10.8406545710      -16.4802798115       33.5638166290  TIP3      338             0.0000000000
      9590       402  TIP3      H2             12.1808335150      -15.9188815333       33.0609954849  TIP3      338             0.0000000000
      9591       403  TIP3      OH2            -3.9651740255      -18.2457521411       36.8797101039  TIP3      339             0.0000000000
      9592       403  TIP3      H1             -3.0383383452      -18.5313289580       37.0095962573  TIP3      339             0.0000000000
      9593       403  TIP3      H2             -4.4532513805      -19.0865480928       37.0192112411  TIP3      339             0.0000000000
      9594       404  TIP3      OH2            14.3555419870      -22.7562716429       38.5838306510  TIP3      340             0.0000000000
      9595       404  TIP3      H1             14.4555880452      -23.4670817044       37.8963437809  TIP3      340             0.0000000000
      9596       404  TIP3      H2             14.2837738339      -21.9937566784       37.9678498957  TIP3      340             0.0000000000
      9597       405  TIP3      OH2            11.7207180490      -20.7731345549       25.1041706314  TIP3      341             0.0000000000
      9598       405  TIP3      H1             11.9637809770      -21.1728978223       25.9733563834  TIP3      341             0.0000000000
      9599       405  TIP3      H2             11.0964809260      -21.4414734116       24.7534552839  TIP3      341             0.0000000000
      9600       406  TIP3      OH2            -2.8071247910      -19.9145497973       29.6675523131  TIP3      342             0.0000000000
      9601       406  TIP3      H1             -2.3587314495      -20.7424947165       29.9373720314  TIP3      342             0.0000000000
      9602       406  TIP3      H2             -2.2137895571      -19.2350140471       30.0127637197  TIP3      342             0.0000000000
      9603       407  TIP3      OH2            -4.5305365813      -16.9329435005       30.6902702188  TIP3      343             0.0000000000
      9604       407  TIP3      H1             -3.9559663240      -17.2148935074       29.9485738151  TIP3      343             0.0000000000
      9605       407  TIP3      H2             -4.0296425829      -16.1508365049       30.9656037595  TIP3      343             0.0000000000
      9606       408  TIP3      OH2            13.4227861074      -20.8171968802       37.0269906394  TIP3      344             0.0000000000
      9607       408  TIP3      H1             12.6006699461      -20.3299446594       36.8302823765  TIP3      344             0.0000000000
      9608       408  TIP3      H2             13.5502430588      -21.2253098599       36.1540832208  TIP3      344             0.0000000000
      9609       409  TIP3      OH2            13.5917425974      -20.8126631707       21.7618370974  TIP3      345             0.0000000000
      9610       409  TIP3      H1             13.9542126386      -21.3568998980       21.0542055866  TIP3      345             0.0000000000
      9611       409  TIP3      H2             14.0876581640      -19.9931447730       21.6097304244  TIP3      345             0.0000000000
      9612       410  TIP3      OH2            -4.1563126401      -20.6397185966       24.8139801930  TIP3      346             0.0000000000
      9613       410  TIP3      H1             -5.1081106106      -20.5381778383       24.6574918790  TIP3      346             0.0000000000
      9614       410  TIP3      H2             -3.7511547251      -20.1823399797       24.0491914126  TIP3      346             0.0000000000
      9615       411  TIP3      OH2            10.5657899340       -5.8176358473       26.6141717189  TIP3      347             0.0000000000
      9616       411  TIP3      H1             11.3259220899       -6.0248918581       26.0596334775  TIP3      347             0.0000000000
      9617       411  TIP3      H2             10.9896698562       -5.2738951419       27.3257126021  TIP3      347             0.0000000000
      9618       412  TIP3      OH2            -4.1226821993      -21.8757645139       33.1404847024  TIP3      348             0.0000000000
      9619       412  TIP3      H1             -4.7807800798      -22.1871317010       33.7734720610  TIP3      348             0.0000000000
      9620       412  TIP3      H2             -4.6121167105      -21.2846872907       32.5353125492  TIP3      348             0.0000000000
      9621       413  TIP3      OH2            -1.9478274070       -8.8665466206       37.2124815913  TIP3      349             0.0000000000
      9622       413  TIP3      H1             -2.7836096017       -8.6208426301       36.7797071728  TIP3      349             0.0000000000
      9623       413  TIP3      H2             -2.2141932744       -8.9426476494       38.1314857907  TIP3      349             0.0000000000
      9624       414  TIP3      OH2             0.9258013480       -7.8261641173       33.5071698280  TIP3      350             0.0000000000
      9625       414  TIP3      H1              0.6494789551       -6.9279952173       33.2588229917  TIP3      350             0.0000000000
      9626       414  TIP3      H2              1.8593979144       -7.7635640177       33.2182320398  TIP3      350             0.0000000000
      9627       415  TIP3      OH2             5.2448323444       -6.4088247480       36.3885823494  TIP3      351             0.0000000000
      9628       415  TIP3      H1              5.3578751385       -6.7643008702       37.2981426053  TIP3      351             0.0000000000
      9629       415  TIP3      H2              6.1514408293       -6.0901031906       36.1781252950  TIP3      351             0.0000000000
      9630       416  TIP3      OH2             7.5327888950       -5.1399072585       35.7520367654  TIP3      352             0.0000000000
      9631       416  TIP3      H1              8.2924823651       -5.6669582095       35.4713938156  TIP3      352             0.0000000000
      9632       416  TIP3      H2              7.8929192992       -4.6849086853       36.5411351492  TIP3      352             0.0000000000
      9633       417  TIP3      OH2            12.4626691980      -22.5532256017       34.8901256674  TIP3      353             0.0000000000
      9634       417  TIP3      H1             11.7154514755      -22.1511635681       34.4203689130  TIP3      353             0.0000000000
      9635       417  TIP3      H2             12.6718568942      -23.3312866551       34.3498136535  TIP3      353             0.0000000000
      9636       418  TIP3      OH2            -1.6495294093       -4.6027332319       33.4709472132  TIP3      354             0.0000000000
      9637       418  TIP3      H1             -2.3801997837       -4.0831073978       33.0978129514  TIP3      354             0.0000000000
      9638       418  TIP3      H2             -1.9263395207       -4.7565762167       34.3848325905  TIP3      354             0.0000000000
      9639       419  TIP3      OH2             0.8123664185       -5.0293524070       32.5528644552  TIP3      355             0.0000000000
      9640       419  TIP3      H1             -0.0735555062       -4.8458548396       32.9479284342  TIP3      355             0.0000000000
      9641       419  TIP3      H2              0.7794083419       -4.4188994852       31.7964127969  TIP3      355             0.0000000000
      9642       420  TIP3      OH2             5.4551545705       -5.1476943991       31.7613656157  TIP3      356             0.0000000000
      9643       420  TIP3      H1              5.1032659965       -4.5550087655       31.0793972238  TIP3      356             0.0000000000
      9644       420  TIP3      H2              5.6492129625       -4.5059466014       32.4786249612  TIP3      356             0.0000000000
      9645       421  TIP3      OH2             7.7609455624       -6.3523285227       32.8338095746  TIP3      357             0.0000000000
      9646       421  TIP3      H1              6.9590538765       -6.0379909982       32.3808174599  TIP3      357             0.0000000000
      9647       421  TIP3      H2              8.3102168758       -5.5620702925       32.6940382339  TIP3      357             0.0000000000
      9648       422  TIP3      OH2            10.5301855375       -4.8903598589       33.1850755359  TIP3      358             0.0000000000
      9649       422  TIP3      H1             10.3038233700       -3.9714433170       32.9472632024  TIP3      358             0.0000000000
      9650       422  TIP3      H2             10.5859393101       -5.1635361097       32.2415423121  TIP3      358             0.0000000000
      9651       423  TIP3      OH2            -2.1601630536       -5.9402706700       30.4467256356  TIP3      359             0.0000000000
      9652       423  TIP3      H1             -2.2648754500       -6.4263198262       31.2903934537  TIP3      359             0.0000000000
      9653       423  TIP3      H2             -1.3590447209       -6.3518581478       30.0569377669  TIP3      359             0.0000000000
      9654       424  TIP3      OH2            -0.1007462637       -7.2734542522       29.0819627153  TIP3      360             0.0000000000
      9655       424  TIP3      H1             -0.2493159434       -8.1806465094       29.4106024966  TIP3      360             0.0000000000
      9656       424  TIP3      H2              0.7502163937       -7.0502976760       29.5207205403  TIP3      360             0.0000000000
      9657       425  TIP3      OH2             2.5059960226       -6.7678066315       29.9739485094  TIP3      361             0.0000000000
      9658       425  TIP3      H1              2.6469861168       -7.6944122086       29.7137722778  TIP3      361             0.0000000000
      9659       425  TIP3      H2              2.5548916271       -6.8136761376       30.9415770444  TIP3      361             0.0000000000
      9660       426  TIP3      OH2             5.8739279341      -20.9964628549       29.1106197723  TIP3      362             0.0000000000
      9661       426  TIP3      H1              5.2852900973      -21.7101163408       29.4395552011  TIP3      362             0.0000000000
      9662       426  TIP3      H2              6.5212195627      -21.5366444063       28.6350674389  TIP3      362             0.0000000000
      9663       427  TIP3      OH2            11.2406778421      -22.4909185530       29.3652500014  TIP3      363             0.0000000000
      9664       427  TIP3      H1             11.7711360050      -22.3659618088       28.5501981462  TIP3      363             0.0000000000
      9665       427  TIP3      H2             10.3517841338      -22.7461516715       29.0501670731  TIP3      363             0.0000000000
      9666       428  TIP3      OH2            12.7828399849      -21.7776068323       27.3570971096  TIP3      364             0.0000000000
      9667       428  TIP3      H1             13.4414849076      -22.4045640590       27.0486893037  TIP3      364             0.0000000000
      9668       428  TIP3      H2             13.2994446964      -20.9536971984       27.5194164339  TIP3      364             0.0000000000
      9669       429  TIP3      OH2            -1.7307928570      -22.5258933208       26.9639554709  TIP3      365             0.0000000000
      9670       429  TIP3      H1             -2.4751040583      -22.6930901251       26.3752804556  TIP3      365             0.0000000000
      9671       429  TIP3      H2             -1.2243775945      -23.3454736778       26.9118732037  TIP3      365             0.0000000000
      9672       430  TIP3      OH2            -3.0090929034      -22.6417040929       23.0903207702  TIP3      366             0.0000000000
      9673       430  TIP3      H1             -2.6207430822      -22.0983833546       22.4016393031  TIP3      366             0.0000000000
      9674       430  TIP3      H2             -3.7353669719      -22.0808229815       23.3705619302  TIP3      366             0.0000000000
      9675       431  TIP3      OH2             2.7860157201      -22.3720472522       26.6744317188  TIP3      367             0.0000000000
      9676       431  TIP3      H1              3.7215667407      -22.1394932452       26.6663336333  TIP3      367             0.0000000000
      9677       431  TIP3      H2              2.7300372111      -22.9317478695       27.4696178386  TIP3      367             0.0000000000
      9678       432  TIP3      OH2             8.3613066802      -22.5111713878       28.3061850197  TIP3      368             0.0000000000
      9679       432  TIP3      H1              8.5394244792      -22.4386594599       27.3703084942  TIP3      368             0.0000000000
      9680       432  TIP3      H2              8.2388019717      -23.4604724959       28.4513886391  TIP3      368             0.0000000000
      9681       433  TIP3      OH2             9.8621520156      -22.3822210858       24.1426185734  TIP3      369             0.0000000000
      9682       433  TIP3      H1              9.0522267610      -21.8688998708       24.0464381933  TIP3      369             0.0000000000
      9683       433  TIP3      H2              9.5757560186      -23.1605301450       24.6266826636  TIP3      369             0.0000000000
      9684       434  TIP3      OH2            -3.0028036257       -6.7318661280       23.7383190647  TIP3      370             0.0000000000
      9685       434  TIP3      H1             -3.5834096828       -6.8202400589       22.9582711781  TIP3      370             0.0000000000
      9686       434  TIP3      H2             -2.9959690955       -5.7600218638       23.7848577848  TIP3      370             0.0000000000
      9687       435  TIP3      OH2            -0.9127707241      -20.1799248809       21.4631087543  TIP3      371             0.0000000000
      9688       435  TIP3      H1             -0.8028340746      -20.9404363030       20.8637254833  TIP3      371             0.0000000000
      9689       435  TIP3      H2             -0.1958354156      -20.3284656527       22.1164255113  TIP3      371             0.0000000000
      9690       436  TIP3      OH2             3.8016105095      -20.5129030508       23.6246375237  TIP3      372             0.0000000000
      9691       436  TIP3      H1              4.1809579536      -21.0747580380       24.3189107105  TIP3      372             0.0000000000
      9692       436  TIP3      H2              4.0126774018      -19.6434662826       24.0112891362  TIP3      372             0.0000000000
      9693       437  TIP3      OH2             5.8364490203       -5.4714616672       21.9357486146  TIP3      373             0.0000000000
      9694       437  TIP3      H1              6.7973870552       -5.2792150363       21.8737601360  TIP3      373             0.0000000000
      9695       437  TIP3      H2              5.7448699766       -5.9752072415       21.1308079843  TIP3      373             0.0000000000
      9696       438  TIP3      OH2            12.5719455136       -5.9424161423       24.7664161894  TIP3      374             0.0000000000
      9697       438  TIP3      H1             12.3617794775       -6.7472560954       24.2380556882  TIP3      374             0.0000000000
      9698       438  TIP3      H2             12.4996052734       -5.2424497525       24.0718066674  TIP3      374             0.0000000000
      9699       439  TIP3      OH2            -1.7263498396      -21.7934469123       36.3281074522  TIP3      375             0.0000000000
      9700       439  TIP3      H1             -2.1976329297      -22.6047360044       36.6470246822  TIP3      375             0.0000000000
      9701       439  TIP3      H2             -0.8928292696      -21.9346562382       36.8246997597  TIP3      375             0.0000000000
      9702       440  TIP3      OH2             0.2702565309      -22.5628997378       38.0214496513  TIP3      376             0.0000000000
      9703       440  TIP3      H1              1.1805119511      -22.8744965360       37.8977929691  TIP3      376             0.0000000000
      9704       440  TIP3      H2             -0.1477777954      -23.3598717933       38.3885576678  TIP3      376             0.0000000000
      9705       441  TIP3      OH2             8.7709379965       23.6419758432       38.2579157792  TIP3      377             0.0000000000
      9706       441  TIP3      H1              8.5360133524       22.9071520614       38.8510078952  TIP3      377             0.0000000000
      9707       441  TIP3      H2              9.5561377130       23.3704167213       37.7752985794  TIP3      377             0.0000000000
      9708       442  TIP3      OH2            11.8207849620       -7.2077541723       36.8144747339  TIP3      378             0.0000000000
      9709       442  TIP3      H1             11.0237994936       -7.3136222445       36.2516036015  TIP3      378             0.0000000000
      9710       442  TIP3      H2             11.7053174257       -6.2626210767       37.0407428077  TIP3      378             0.0000000000
      9711       443  TIP3      OH2            17.4406353045      -14.4069143843       31.8603999391  TIP3      379             0.0000000000
      9712       443  TIP3      H1             17.5317595316      -15.1076646114       32.5398577585  TIP3      379             0.0000000000
      9713       443  TIP3      H2             18.1847773622      -13.8389612687       32.0974819887  TIP3      379             0.0000000000
      9714       444  TIP3      OH2            18.3870119740       -9.9540728779       30.3365852245  TIP3      380             0.0000000000
      9715       444  TIP3      H1             18.0772951855      -10.8335864347       30.0457457759  TIP3      380             0.0000000000
      9716       444  TIP3      H2             19.3438457464      -10.1438526635       30.3770604989  TIP3      380             0.0000000000
      9717       445  TIP3      OH2            15.0178763652      -16.4190223788       25.8451790515  TIP3      381             0.0000000000
      9718       445  TIP3      H1             14.5683755044      -15.5585536711       25.7779989000  TIP3      381             0.0000000000
      9719       445  TIP3      H2             14.4754976087      -16.9595347008       25.2492236290  TIP3      381             0.0000000000
      9720       446  TIP3      OH2            15.7422335720      -14.1656354654       28.0413492944  TIP3      382             0.0000000000
      9721       446  TIP3      H1             16.0370900596      -15.0071170139       28.4440938296  TIP3      382             0.0000000000
      9722       446  TIP3      H2             16.3957727224      -14.0533175753       27.3344626337  TIP3      382             0.0000000000
      9723       447  TIP3      OH2            19.4971513599      -19.0710107261       28.2991324145  TIP3      383             0.0000000000
      9724       447  TIP3      H1             19.9141494534      -18.3288194357       27.8135978361  TIP3      383             0.0000000000
      9725       447  TIP3      H2             19.3261103616      -19.7188244384       27.5823986400  TIP3      383             0.0000000000
      9726       448  TIP3      OH2            16.3938734794      -16.7305560954       29.0445062884  TIP3      384             0.0000000000
      9727       448  TIP3      H1             17.0812177442      -17.2532346038       29.4922477585  TIP3      384             0.0000000000
      9728       448  TIP3      H2             16.5159904022      -17.0105682174       28.1239136553  TIP3      384             0.0000000000
      9729       449  TIP3      OH2            21.5544065910      -15.1716524056       28.4139235242  TIP3      385             0.0000000000
      9730       449  TIP3      H1             22.2440739823      -15.7545656148       28.7810755956  TIP3      385             0.0000000000
      9731       449  TIP3      H2             21.0032262634      -15.8183172063       27.9292171038  TIP3      385             0.0000000000
      9732       450  TIP3      OH2            18.6143384391      -20.2138722308       32.3249392113  TIP3      386             0.0000000000
      9733       450  TIP3      H1             18.3671656100      -19.5893743708       31.5973696194  TIP3      386             0.0000000000
      9734       450  TIP3      H2             17.9558694178      -19.9671779462       33.0253745665  TIP3      386             0.0000000000
      9735       451  TIP3      OH2            21.2065621507      -12.5435739862       32.5942116178  TIP3      387             0.0000000000
      9736       451  TIP3      H1             20.4464704434      -11.9623296141       32.8297884515  TIP3      387             0.0000000000
      9737       451  TIP3      H2             21.8398624948      -11.8984138953       32.2768007778  TIP3      387             0.0000000000
      9738       452  TIP3      OH2            18.2429056190      -18.3339009296       30.4241906953  TIP3      388             0.0000000000
      9739       452  TIP3      H1             18.8997432075      -17.6524602973       30.6869092908  TIP3      388             0.0000000000
      9740       452  TIP3      H2             18.7103079555      -18.7598059138       29.6527965160  TIP3      388             0.0000000000
      9741       453  TIP3      OH2            19.6410268322      -10.5710581695       33.4046609818  TIP3      389             0.0000000000
      9742       453  TIP3      H1             19.5884792674       -9.6532080961       33.0841590407  TIP3      389             0.0000000000
      9743       453  TIP3      H2             18.7598649098      -10.6653790699       33.8558262174  TIP3      389             0.0000000000
      9744       454  TIP3      OH2            15.7584114905      -10.9826964122       24.1073932014  TIP3      390             0.0000000000
      9745       454  TIP3      H1             15.4040758122      -10.6413068597       23.2792183246  TIP3      390             0.0000000000
      9746       454  TIP3      H2             15.7783612908      -10.2004560461       24.6969688055  TIP3      390             0.0000000000
      9747       455  TIP3      OH2            22.8587192015      -22.7154654120       30.0105556519  TIP3      391             0.0000000000
      9748       455  TIP3      H1             22.6914412136      -23.6608456446       29.8363967718  TIP3      391             0.0000000000
      9749       455  TIP3      H2             21.9651668776      -22.3542444961       30.0206266261  TIP3      391             0.0000000000
      9750       456  TIP3      OH2            19.9556515075      -13.2216122250       27.1673010247  TIP3      392             0.0000000000
      9751       456  TIP3      H1             19.6746854873      -13.6087662718       26.3103200625  TIP3      392             0.0000000000
      9752       456  TIP3      H2             20.5756565589      -13.9043198584       27.5131649177  TIP3      392             0.0000000000
      9753       457  TIP3      OH2            21.2236042173       -9.9295248507       29.8939272303  TIP3      393             0.0000000000
      9754       457  TIP3      H1             21.2513245621      -10.3495968378       29.0206462052  TIP3      393             0.0000000000
      9755       457  TIP3      H2             22.1294391329      -10.1051271022       30.2109489032  TIP3      393             0.0000000000
      9756       458  TIP3      OH2            20.2945635114      -14.4473467087       30.8771008837  TIP3      394             0.0000000000
      9757       458  TIP3      H1             20.8790463932      -14.4374880218       30.0904115094  TIP3      394             0.0000000000
      9758       458  TIP3      H2             20.7430453492      -13.7910074587       31.4531864647  TIP3      394             0.0000000000
      9759       459  TIP3      OH2            21.2222733008      -10.1674810258       35.5473121691  TIP3      395             0.0000000000
      9760       459  TIP3      H1             20.8953720254       -9.3612286484       36.0061594694  TIP3      395             0.0000000000
      9761       459  TIP3      H2             20.6005388732      -10.2841644907       34.7971092232  TIP3      395             0.0000000000
      9762       460  TIP3      OH2            18.2276760990      -13.8975235468       34.6371812398  TIP3      396             0.0000000000
      9763       460  TIP3      H1             18.2747475156      -13.2301240606       35.3465744636  TIP3      396             0.0000000000
      9764       460  TIP3      H2             17.2674224805      -13.8661731350       34.4820281171  TIP3      396             0.0000000000
      9765       461  TIP3      OH2            19.5396035799       -8.0529950143       36.2547062309  TIP3      397             0.0000000000
      9766       461  TIP3      H1             19.4321371744       -8.1406487265       35.2878234203  TIP3      397             0.0000000000
      9767       461  TIP3      H2             18.6155204208       -8.1702324706       36.5504613926  TIP3      397             0.0000000000
      9768       462  TIP3      OH2            18.9842882886      -14.2893294260       24.7189012551  TIP3      398             0.0000000000
      9769       462  TIP3      H1             18.6785252368      -13.4568851009       24.2722409773  TIP3      398             0.0000000000
      9770       462  TIP3      H2             18.2344759713      -14.8658414732       24.5471070040  TIP3      398             0.0000000000
      9771       463  TIP3      OH2            15.0305908588      -11.7768427132       33.7108515181  TIP3      399             0.0000000000
      9772       463  TIP3      H1             14.5948991979      -11.8610522221       32.8434501179  TIP3      399             0.0000000000
      9773       463  TIP3      H2             15.1437911542      -12.7268038543       33.9205042090  TIP3      399             0.0000000000
      9774       464  TIP3      OH2            14.8104638432       -9.0700305935       30.4696020400  TIP3      400             0.0000000000
      9775       464  TIP3      H1             15.7716136271       -9.1556575457       30.4081757892  TIP3      400             0.0000000000
      9776       464  TIP3      H2             14.7172163596       -8.2298979567       30.9405300196  TIP3      400             0.0000000000
      9777       465  TIP3      OH2            18.0752692373       -6.1794709744       26.6608889797  TIP3      401             0.0000000000
      9778       465  TIP3      H1             18.2127924047       -6.5939528723       27.5402010751  TIP3      401             0.0000000000
      9779       465  TIP3      H2             17.2230920505       -6.5789952668       26.4237059949  TIP3      401             0.0000000000
      9780       466  TIP3      OH2            17.3159715899      -10.4688232112       34.6119384797  TIP3      402             0.0000000000
      9781       466  TIP3      H1             17.5334586233      -10.8036750301       35.5076065382  TIP3      402             0.0000000000
      9782       466  TIP3      H2             16.4445573016      -10.8675732537       34.4141265191  TIP3      402             0.0000000000
      9783       467  TIP3      OH2            19.9847664349      -21.4549426339       30.4382718624  TIP3      403             0.0000000000
      9784       467  TIP3      H1             19.1350237591      -21.8805606459       30.1628475482  TIP3      403             0.0000000000
      9785       467  TIP3      H2             19.6739764692      -20.9384781203       31.2055057848  TIP3      403             0.0000000000
      9786       468  TIP3      OH2            20.0811998507      -17.0338019238       31.8559230897  TIP3      404             0.0000000000
      9787       468  TIP3      H1             19.3299156390      -17.0291664149       32.4792189795  TIP3      404             0.0000000000
      9788       468  TIP3      H2             20.0299746134      -16.1395729471       31.4576147091  TIP3      404             0.0000000000
      9789       469  TIP3      OH2            20.0447914264      -16.8551757950       26.6468169370  TIP3      405             0.0000000000
      9790       469  TIP3      H1             19.1136293721      -17.1616180972       26.5782385019  TIP3      405             0.0000000000
      9791       469  TIP3      H2             20.4499121511      -17.2441171080       25.8544325752  TIP3      405             0.0000000000
      9792       470  TIP3      OH2            17.7271438605      -16.7304808463       33.4946436920  TIP3      406             0.0000000000
      9793       470  TIP3      H1             17.8510926354      -16.3550868697       34.3781686616  TIP3      406             0.0000000000
      9794       470  TIP3      H2             17.3307655230      -17.5889671033       33.7045559300  TIP3      406             0.0000000000
      9795       471  TIP3      OH2            21.0505092180      -19.0721979931       20.5738483338  TIP3      407             0.0000000000
      9796       471  TIP3      H1             20.7169618581      -19.8656677262       21.0268979228  TIP3      407             0.0000000000
      9797       471  TIP3      H2             20.5743702383      -19.1616611944       19.7409864391  TIP3      407             0.0000000000
      9798       472  TIP3      OH2            14.4109913975      -19.6624486856       27.5293595348  TIP3      408             0.0000000000
      9799       472  TIP3      H1             15.1076312684      -19.6577363616       28.2191852395  TIP3      408             0.0000000000
      9800       472  TIP3      H2             14.8402142265      -20.0376017180       26.7414655376  TIP3      408             0.0000000000
      9801       473  TIP3      OH2            22.0912999023      -19.0493365703       27.8713447836  TIP3      409             0.0000000000
      9802       473  TIP3      H1             21.3063976738      -19.4646154148       28.2698012373  TIP3      409             0.0000000000
      9803       473  TIP3      H2             22.7838207185      -19.2946716330       28.5004120614  TIP3      409             0.0000000000
      9804       474  TIP3      OH2            17.4269732852      -17.7568372600       26.4837210672  TIP3      410             0.0000000000
      9805       474  TIP3      H1             16.5059166782      -17.6474767360       26.1685108781  TIP3      410             0.0000000000
      9806       474  TIP3      H2             17.6681185446      -18.6633173206       26.2105248052  TIP3      410             0.0000000000
      9807       475  TIP3      OH2            21.0877173079      -17.7647639153       24.1845228409  TIP3      411             0.0000000000
      9808       475  TIP3      H1             21.9976589206      -17.5941509707       24.4198339546  TIP3      411             0.0000000000
      9809       475  TIP3      H2             20.8536872096      -17.0562554953       23.5752895223  TIP3      411             0.0000000000
      9810       476  TIP3      OH2            17.8883654876      -11.9963833656       36.8365019196  TIP3      412             0.0000000000
      9811       476  TIP3      H1             18.6307079708      -11.7556168291       37.4205799893  TIP3      412             0.0000000000
      9812       476  TIP3      H2             17.1352789387      -11.9585470908       37.4644459361  TIP3      412             0.0000000000
      9813       477  TIP3      OH2            18.9243354093      -20.4129446840       26.0187372698  TIP3      413             0.0000000000
      9814       477  TIP3      H1             18.5481073255      -21.3122018064       26.0820488491  TIP3      413             0.0000000000
      9815       477  TIP3      H2             19.6962083061      -20.5754380996       25.4596232772  TIP3      413             0.0000000000
      9816       478  TIP3      OH2            22.4497369421      -18.3986251539       32.1878387379  TIP3      414             0.0000000000
      9817       478  TIP3      H1             21.7455886320      -17.7499267614       31.9657462894  TIP3      414             0.0000000000
      9818       478  TIP3      H2             23.0688516059      -17.8494939166       32.6544828242  TIP3      414             0.0000000000
      9819       479  TIP3      OH2            22.9197812637      -12.0330174919       23.5915092970  TIP3      415             0.0000000000
      9820       479  TIP3      H1             22.1298851993      -12.5896832473       23.4462118434  TIP3      415             0.0000000000
      9821       479  TIP3      H2             22.9199126372      -11.9450950206       24.5609441555  TIP3      415             0.0000000000
      9822       480  TIP3      OH2            18.2683281243      -12.6336116143       29.5075503374  TIP3      416             0.0000000000
      9823       480  TIP3      H1             18.8948420020      -12.7376496700       28.7671355843  TIP3      416             0.0000000000
      9824       480  TIP3      H2             18.3188861167      -13.4981016009       29.9533178470  TIP3      416             0.0000000000
      9825       481  TIP3      OH2            15.2294712490      -14.2481585541       34.7556908169  TIP3      417             0.0000000000
      9826       481  TIP3      H1             15.3690429357      -14.6987104360       35.6120456315  TIP3      417             0.0000000000
      9827       481  TIP3      H2             14.5998358825      -14.8376539845       34.3005398564  TIP3      417             0.0000000000
      9828       482  TIP3      OH2            22.3457945245      -14.6399895771       36.8808901049  TIP3      418             0.0000000000
      9829       482  TIP3      H1             21.8531932826      -15.0348353102       36.1480034741  TIP3      418             0.0000000000
      9830       482  TIP3      H2             23.1611922634      -15.1519614344       36.9190222832  TIP3      418             0.0000000000
      9831       483  TIP3      OH2            20.5878222020       -9.1628231064       26.9585779502  TIP3      419             0.0000000000
      9832       483  TIP3      H1             21.0857437897       -8.3824627420       26.6673617336  TIP3      419             0.0000000000
      9833       483  TIP3      H2             19.7093408209       -8.9550331758       26.6145332182  TIP3      419             0.0000000000
      9834       484  TIP3      OH2            22.0061599619      -11.5048834772       26.3627449755  TIP3      420             0.0000000000
      9835       484  TIP3      H1             21.6945688613      -10.5941512820       26.5244725340  TIP3      420             0.0000000000
      9836       484  TIP3      H2             21.3130849608      -12.0141049032       26.8241772341  TIP3      420             0.0000000000
      9837       485  TIP3      OH2            22.4771249504       -7.3606461402       32.7605143701  TIP3      421             0.0000000000
      9838       485  TIP3      H1             22.8971089694       -6.5076473501       32.6000076723  TIP3      421             0.0000000000
      9839       485  TIP3      H2             23.0381022171       -7.7296331407       33.4555346262  TIP3      421             0.0000000000
      9840       486  TIP3      OH2            20.7109911486       -6.5226932966       25.9416702289  TIP3      422             0.0000000000
      9841       486  TIP3      H1             19.7404942066       -6.4442050719       26.1078888965  TIP3      422             0.0000000000
      9842       486  TIP3      H2             20.9881621881       -5.7001000835       26.3591207500  TIP3      422             0.0000000000
      9843       487  TIP3      OH2            16.9026787230      -19.5707735426       34.3057440744  TIP3      423             0.0000000000
      9844       487  TIP3      H1             16.0132908817      -19.1896240253       34.3247012079  TIP3      423             0.0000000000
      9845       487  TIP3      H2             16.7463174077      -20.4267981276       34.7437472185  TIP3      423             0.0000000000
      9846       488  TIP3      OH2            16.4997826335       -7.7568871678       32.7279244183  TIP3      424             0.0000000000
      9847       488  TIP3      H1             16.8478946659       -8.6575837110       32.7420620473  TIP3      424             0.0000000000
      9848       488  TIP3      H2             16.7516508644       -7.4345967190       33.5993202039  TIP3      424             0.0000000000
      9849       489  TIP3      OH2            22.1806560134       -9.2934379949       19.9966534001  TIP3      425             0.0000000000
      9850       489  TIP3      H1             22.5516524148       -9.9994272507       19.4649699624  TIP3      425             0.0000000000
      9851       489  TIP3      H2             21.9863794184       -9.6840845253       20.8808166963  TIP3      425             0.0000000000
      9852       490  TIP3      OH2            21.3836068086       -9.6334794569       22.5147356721  TIP3      426             0.0000000000
      9853       490  TIP3      H1             21.4334449572      -10.1925968035       23.2973436971  TIP3      426             0.0000000000
      9854       490  TIP3      H2             21.2743254944       -8.7133599541       22.8353456022  TIP3      426             0.0000000000
      9855       491  TIP3      OH2            17.9109770387      -12.3975889420       23.0834280849  TIP3      427             0.0000000000
      9856       491  TIP3      H1             17.0953182597      -12.0137732545       23.4709007168  TIP3      427             0.0000000000
      9857       491  TIP3      H2             18.2754660058      -11.6509296422       22.6009680385  TIP3      427             0.0000000000
      9858       492  TIP3      OH2            21.2674255661       -6.9425897659       23.1556818130  TIP3      428             0.0000000000
      9859       492  TIP3      H1             21.5462890626       -6.1291880415       22.6803661426  TIP3      428             0.0000000000
      9860       492  TIP3      H2             21.1263774857       -6.6469910192       24.0765825735  TIP3      428             0.0000000000
      9861       493  TIP3      OH2            19.9012091230      -20.1803158051       22.7881253793  TIP3      429             0.0000000000
      9862       493  TIP3      H1             20.0062021817      -19.3057451540       23.1807243126  TIP3      429             0.0000000000
      9863       493  TIP3      H2             20.8327411650      -20.4877554832       22.9393984879  TIP3      429             0.0000000000
      9864       494  TIP3      OH2            17.4399524237      -22.2630556410       29.6295786356  TIP3      430             0.0000000000
      9865       494  TIP3      H1             17.2721440001      -22.3344060064       28.6705010462  TIP3      430             0.0000000000
      9866       494  TIP3      H2             17.1162967482      -23.1302886462       29.9580964182  TIP3      430             0.0000000000
      9867       495  TIP3      OH2            16.4125538366       -8.4626451705       25.8218172472  TIP3      431             0.0000000000
      9868       495  TIP3      H1             15.5646716172       -7.9945834312       25.8173586850  TIP3      431             0.0000000000
      9869       495  TIP3      H2             16.8919803202       -7.9808477220       25.1400440672  TIP3      431             0.0000000000
      9870       496  TIP3      OH2            15.6099417692       -5.7774631092       37.1167977465  TIP3      432             0.0000000000
      9871       496  TIP3      H1             16.2385679741       -5.9510664790       37.8472539210  TIP3      432             0.0000000000
      9872       496  TIP3      H2             15.2410093465       -6.6641843141       36.9552898291  TIP3      432             0.0000000000
      9873       497  TIP3      OH2            20.3536536327       -6.8603679606       38.7155086606  TIP3      433             0.0000000000
      9874       497  TIP3      H1             21.1251554472       -7.3492636655       39.0520579881  TIP3      433             0.0000000000
      9875       497  TIP3      H2             20.2851762331       -7.1800141501       37.7922253347  TIP3      433             0.0000000000
      9876       498  TIP3      OH2            15.5096596260      -12.0201947341       38.1398169124  TIP3      434             0.0000000000
      9877       498  TIP3      H1             15.6866580609      -12.9303598813       37.8427377454  TIP3      434             0.0000000000
      9878       498  TIP3      H2             14.7989027825      -11.7570957878       37.5317220835  TIP3      434             0.0000000000
      9879       499  TIP3      OH2            22.2205035842      -11.9861002087       37.5169459036  TIP3      435             0.0000000000
      9880       499  TIP3      H1             21.8717324593      -11.6402488872       36.6664659113  TIP3      435             0.0000000000
      9881       499  TIP3      H2             22.2983137944      -12.9575272579       37.3453982494  TIP3      435             0.0000000000
      9882       500  TIP3      OH2            16.4912661996      -14.7699617030       37.5145820352  TIP3      436             0.0000000000
      9883       500  TIP3      H1             16.9212511088      -15.6281791467       37.4375968778  TIP3      436             0.0000000000
      9884       500  TIP3      H2             16.2723380667      -14.7453620417       38.4588257043  TIP3      436             0.0000000000
      9885       501  TIP3      OH2            21.1064132433      -13.6696849424       22.6226556085  TIP3      437             0.0000000000
      9886       501  TIP3      H1             20.5209322414      -14.1495996373       23.2226913493  TIP3      437             0.0000000000
      9887       501  TIP3      H2             21.3049550499      -14.2834456654       21.8880102032  TIP3      437             0.0000000000
      9888       502  TIP3      OH2            20.3391118157      -15.8498837882       34.8685386221  TIP3      438             0.0000000000
      9889       502  TIP3      H1             19.7181579661      -15.1408055865       35.0943969099  TIP3      438             0.0000000000
      9890       502  TIP3      H2             20.7450068062      -15.4730697400       34.0662297421  TIP3      438             0.0000000000
      9891       503  TIP3      OH2            22.1898846038      -15.3113875725       20.7366705695  TIP3      439             0.0000000000
      9892       503  TIP3      H1             22.0506142688      -15.7154511236       19.8582499769  TIP3      439             0.0000000000
      9893       503  TIP3      H2             23.1382361753      -15.4874568342       20.8111749215  TIP3      439             0.0000000000
      9894       504  TIP3      OH2            20.8456145603      -18.5174658814       35.8619465323  TIP3      440             0.0000000000
      9895       504  TIP3      H1             20.9383377605      -19.1772845399       35.1526967982  TIP3      440             0.0000000000
      9896       504  TIP3      H2             20.7236810301      -17.6879059987       35.3492731704  TIP3      440             0.0000000000
      9897       505  TIP3      OH2            21.1100459928      -19.9862894188       33.5237751555  TIP3      441             0.0000000000
      9898       505  TIP3      H1             21.6266691622      -19.5414846673       32.8101497868  TIP3      441             0.0000000000
      9899       505  TIP3      H2             20.2412833145      -20.0534727973       33.0810578539  TIP3      441             0.0000000000
      9900       506  TIP3      OH2            22.4570440983      -14.7596456806       33.3820335638  TIP3      442             0.0000000000
      9901       506  TIP3      H1             23.3214428107      -14.7771256638       32.9498890765  TIP3      442             0.0000000000
      9902       506  TIP3      H2             22.2187064930      -13.8135840041       33.2733994580  TIP3      442             0.0000000000
      9903       507  TIP3      OH2            19.2679373295      -17.2239505966       37.8188541843  TIP3      443             0.0000000000
      9904       507  TIP3      H1             18.4795826548      -17.7768780737       37.6498641728  TIP3      443             0.0000000000
      9905       507  TIP3      H2             19.9056297210      -17.6225891662       37.2002651496  TIP3      443             0.0000000000
      9906       508  TIP3      OH2            21.0166986805      -22.4297656516       34.0058351816  TIP3      444             0.0000000000
      9907       508  TIP3      H1             21.4487469601      -21.5498960857       33.8150249745  TIP3      444             0.0000000000
      9908       508  TIP3      H2             21.1226939770      -22.9338188013       33.1964796398  TIP3      444             0.0000000000
      9909       509  TIP3      OH2            22.6741648873      -17.8948349322       37.9355892442  TIP3      445             0.0000000000
      9910       509  TIP3      H1             22.7696477794      -18.6402088407       38.5465384199  TIP3      445             0.0000000000
      9911       509  TIP3      H2             22.3036687483      -18.3240584234       37.1372738891  TIP3      445             0.0000000000
      9912       510  TIP3      OH2            17.3285866126      -19.2818463464       37.6089628956  TIP3      446             0.0000000000
      9913       510  TIP3      H1             17.5457805024      -20.0403878334       37.0337855066  TIP3      446             0.0000000000
      9914       510  TIP3      H2             17.2820793140      -19.6863113399       38.4947304122  TIP3      446             0.0000000000
      9915       511  TIP3      OH2            22.5348325681       24.2684633761       36.0806880192  TIP3      447             0.0000000000
      9916       511  TIP3      H1             23.0161741765       23.4590945805       36.2633087811  TIP3      447             0.0000000000
      9917       511  TIP3      H2             21.9993341774       23.9699546682       35.3139998562  TIP3      447             0.0000000000
      9918       512  TIP3      OH2            22.5428711447      -21.6219705774       38.6957014969  TIP3      448             0.0000000000
      9919       512  TIP3      H1             22.4420624255      -21.9972009472       37.8004976778  TIP3      448             0.0000000000
      9920       512  TIP3      H2             21.9492750727      -20.8455498856       38.6699645849  TIP3      448             0.0000000000
      9921       513  TIP3      OH2            22.0273188102       -4.7125836214       21.8618143522  TIP3      449             0.0000000000
      9922       513  TIP3      H1             22.9887802216       -4.6293344304       21.9248537314  TIP3      449             0.0000000000
      9923       513  TIP3      H2             21.8922381738       -4.0428493990       21.1998558772  TIP3      449             0.0000000000
      9924       514  TIP3      OH2            14.3525228444       -4.7620355716       26.3175580534  TIP3      450             0.0000000000
      9925       514  TIP3      H1             13.6599221067       -5.2533983178       25.8186353022  TIP3      450             0.0000000000
      9926       514  TIP3      H2             14.6168056171       -5.4288118913       26.9775145977  TIP3      450             0.0000000000
      9927       515  TIP3      OH2            15.1808892558       -6.6218752706       28.1852368492  TIP3      451             0.0000000000
      9928       515  TIP3      H1             14.8021930564       -7.4868290926       28.3943015363  TIP3      451             0.0000000000
      9929       515  TIP3      H2             15.4020089003       -6.2771935707       29.0726817494  TIP3      451             0.0000000000
      9930       516  TIP3      OH2            15.2344026543      -13.5323800754       30.6754748914  TIP3      452             0.0000000000
      9931       516  TIP3      H1             15.3905807638      -13.6266034149       29.7092438097  TIP3      452             0.0000000000
      9932       516  TIP3      H2             16.1294654087      -13.7434623529       31.0121783313  TIP3      452             0.0000000000
      9933       517  TIP3      OH2            14.8792331240      -18.2733919380       36.8786976866  TIP3      453             0.0000000000
      9934       517  TIP3      H1             15.8218781453      -18.5251145974       36.9999930594  TIP3      453             0.0000000000
      9935       517  TIP3      H2             14.4061165712      -19.1065742716       37.0400455142  TIP3      453             0.0000000000
      9936       518  TIP3      OH2            16.0480981600      -19.9309139344       29.6758570594  TIP3      454             0.0000000000
      9937       518  TIP3      H1             16.4969188562      -20.7569461845       29.9445560655  TIP3      454             0.0000000000
      9938       518  TIP3      H2             16.6514458400      -19.2495158528       30.0080028047  TIP3      454             0.0000000000
      9939       519  TIP3      OH2            14.3289578813      -16.9331548047       30.6866541894  TIP3      455             0.0000000000
      9940       519  TIP3      H1             14.9036864022      -17.2152317808       29.9476902294  TIP3      455             0.0000000000
      9941       519  TIP3      H2             14.8265785486      -16.1497158853       30.9641312971  TIP3      455             0.0000000000
      9942       520  TIP3      OH2            14.6996763641      -20.6703615899       24.7815071905  TIP3      456             0.0000000000
      9943       520  TIP3      H1             13.7475653651      -20.5291195722       24.6289151821  TIP3      456             0.0000000000
      9944       520  TIP3      H2             15.0900657821      -20.1869521386       24.0543352631  TIP3      456             0.0000000000
      9945       521  TIP3      OH2            14.7404097372      -21.8588133712       33.1423980085  TIP3      457             0.0000000000
      9946       521  TIP3      H1             14.0794538884      -22.2063285036       33.7487678261  TIP3      457             0.0000000000
      9947       521  TIP3      H2             14.2446641405      -21.2828900968       32.5279114321  TIP3      457             0.0000000000
      9948       522  TIP3      OH2            16.9089836468       -8.8650232835       37.2094694517  TIP3      458             0.0000000000
      9949       522  TIP3      H1             16.0687076432       -8.6191159759       36.7814722895  TIP3      458             0.0000000000
      9950       522  TIP3      H2             16.6464359157       -8.9419124712       38.1291396793  TIP3      458             0.0000000000
      9951       523  TIP3      OH2            19.7571922318       -7.7711553937       33.5354280997  TIP3      459             0.0000000000
      9952       523  TIP3      H1             19.4899951489       -6.8913192352       33.2297061924  TIP3      459             0.0000000000
      9953       523  TIP3      H2             20.6976782066       -7.7440325720       33.2617654627  TIP3      459             0.0000000000
      9954       524  TIP3      OH2            17.1946470434       -4.6111004578       33.4659018675  TIP3      460             0.0000000000
      9955       524  TIP3      H1             16.4859742087       -4.0518050580       33.1076319832  TIP3      460             0.0000000000
      9956       524  TIP3      H2             16.9256963857       -4.7297247868       34.3879008296  TIP3      460             0.0000000000
      9957       525  TIP3      OH2            19.6712111173       -5.0483867087       32.5172601616  TIP3      461             0.0000000000
      9958       525  TIP3      H1             18.8071556927       -4.8643679279       32.9587018903  TIP3      461             0.0000000000
      9959       525  TIP3      H2             19.6036207951       -4.4000344788       31.7941576374  TIP3      461             0.0000000000
      9960       526  TIP3      OH2            16.7346826129       -5.9654834153       30.4329505092  TIP3      462             0.0000000000
      9961       526  TIP3      H1             16.6130536722       -6.4289919554       31.2875866008  TIP3      462             0.0000000000
      9962       526  TIP3      H2             17.5368327386       -6.3617461114       30.0499518048  TIP3      462             0.0000000000
      9963       527  TIP3      OH2            18.7799637824       -7.2314774489       29.0668635105  TIP3      463             0.0000000000
      9964       527  TIP3      H1             18.6349532396       -8.1595377767       29.3384441900  TIP3      463             0.0000000000
      9965       527  TIP3      H2             19.6314043139       -7.0551618929       29.5097876721  TIP3      463             0.0000000000
      9966       528  TIP3      OH2            21.3995908966       -6.7652243318       29.9644278377  TIP3      464             0.0000000000
      9967       528  TIP3      H1             21.5049601061       -7.6976062629       29.7066959765  TIP3      464             0.0000000000
      9968       528  TIP3      H2             21.3458716976       -6.8174367694       30.9311142147  TIP3      464             0.0000000000
      9969       529  TIP3      OH2            17.1522811272      -22.5061674342       26.9741499859  TIP3      465             0.0000000000
      9970       529  TIP3      H1             16.3956308508      -22.6661899230       26.3959451905  TIP3      465             0.0000000000
      9971       529  TIP3      H2             17.6263128415      -23.3394392920       26.8893204692  TIP3      465             0.0000000000
      9972       530  TIP3      OH2            15.9329686852      -22.7157301005       22.6871376984  TIP3      466             0.0000000000
      9973       530  TIP3      H1             16.4680065967      -22.1233231640       22.1259009672  TIP3      466             0.0000000000
      9974       530  TIP3      H2             15.3173758554      -22.1410971307       23.1474731526  TIP3      466             0.0000000000
      9975       531  TIP3      OH2            21.6451736531      -22.3293695725       26.6597703615  TIP3      467             0.0000000000
      9976       531  TIP3      H1             22.5764015059      -22.1093917516       26.7285589006  TIP3      467             0.0000000000
      9977       531  TIP3      H2             21.5360554403      -22.9018787841       27.4478418282  TIP3      467             0.0000000000
      9978       532  TIP3      OH2            15.8444085766       -6.7851902190       23.6590700744  TIP3      468             0.0000000000
      9979       532  TIP3      H1             15.1606848646       -6.8090253242       22.9784554444  TIP3      468             0.0000000000
      9980       532  TIP3      H2             15.8627657495       -5.8277744694       23.8407359043  TIP3      468             0.0000000000
      9981       533  TIP3      OH2            17.7916492010      -20.9002466761       21.2142236692  TIP3      469             0.0000000000
      9982       533  TIP3      H1             18.3659206896      -21.4447985519       20.6667423704  TIP3      469             0.0000000000
      9983       533  TIP3      H2             18.4472204408      -20.5333401506       21.8377749685  TIP3      469             0.0000000000
      9984       534  TIP3      OH2            22.3482251359      -20.4601034863       23.3057866684  TIP3      470             0.0000000000
      9985       534  TIP3      H1             22.8185569418      -21.1823089655       23.7597742213  TIP3      470             0.0000000000
      9986       534  TIP3      H2             22.7441995479      -19.6916034949       23.7268201415  TIP3      470             0.0000000000
      9987       535  TIP3      OH2            17.0941061726      -21.7775831898       36.3684180120  TIP3      471             0.0000000000
      9988       535  TIP3      H1             16.6802313242      -22.6230342265       36.6589949468  TIP3      471             0.0000000000
      9989       535  TIP3      H2             17.9491277514      -21.9217323669       36.8275978427  TIP3      471             0.0000000000
      9990       536  TIP3      OH2            19.0763643218      -22.5914785700       37.9436078954  TIP3      472             0.0000000000
      9991       536  TIP3      H1             19.9991077543      -22.8745617377       37.8609572273  TIP3      472             0.0000000000
      9992       536  TIP3      H2             18.7054374749      -23.3767041832       38.3804229053  TIP3      472             0.0000000000
      9993       537  TIP3      OH2           -11.4237750364        5.5241429831       26.7386818065  TIP3      473             0.0000000000
      9994       537  TIP3      H1            -11.4691522972        6.5029625170       26.8128053401  TIP3      473             0.0000000000
      9995       537  TIP3      H2            -12.2344825982        5.3369687643       26.2680895166  TIP3      473             0.0000000000
      9996       538  TIP3      OH2           -12.5993082106        4.7458349341       30.2769004253  TIP3      474             0.0000000000
      9997       538  TIP3      H1            -12.6031602035        4.1354694474       31.0321388643  TIP3      474             0.0000000000
      9998       538  TIP3      H2            -13.0029447626        4.2108723506       29.5732433306  TIP3      474             0.0000000000
      9999       539  TIP3      OH2           -20.2170359692        4.4226855530       31.8126669454  TIP3      475             0.0000000000
     10000       539  TIP3      H1            -20.1518502510        3.7477155769       32.5191952538  TIP3      475             0.0000000000
     10001       539  TIP3      H2            -19.4938721159        5.0184311003       32.0744653046  TIP3      475             0.0000000000
     10002       540  TIP3      OH2            -8.9482796925        7.7172626705       28.6054987357  TIP3      476             0.0000000000
     10003       540  TIP3      H1             -9.3271772896        6.9917835826       29.1107687149  TIP3      476             0.0000000000
     10004       540  TIP3      H2             -8.8836450698        8.4110379920       29.2870317041  TIP3      476             0.0000000000
     10005       541  TIP3      OH2           -19.3818572287        8.9083104020       30.3384739897  TIP3      477             0.0000000000
     10006       541  TIP3      H1            -19.6532144620        8.0165290121       30.0394563672  TIP3      477             0.0000000000
     10007       541  TIP3      H2            -18.4229036454        8.7458225509       30.3818186340  TIP3      477             0.0000000000
     10008       542  TIP3      OH2           -22.5924417201        2.4939134995       25.7096570323  TIP3      478             0.0000000000
     10009       542  TIP3      H1            -23.0453635996        3.3380953774       25.8732910582  TIP3      478             0.0000000000
     10010       542  TIP3      H2            -23.2930501938        1.8992465406       25.4571439236  TIP3      478             0.0000000000
     10011       543  TIP3      OH2           -21.9220495255        4.6551773254       28.0558129659  TIP3      479             0.0000000000
     10012       543  TIP3      H1            -21.6622894060        3.7996913375       28.4449286492  TIP3      479             0.0000000000
     10013       543  TIP3      H2            -21.2528119664        4.8090729515       27.3800361105  TIP3      479             0.0000000000
     10014       544  TIP3      OH2           -11.8006350835       12.8864827668       28.8483186805  TIP3      480             0.0000000000
     10015       544  TIP3      H1            -11.1422999862       12.2151334450       28.5461542682  TIP3      480             0.0000000000
     10016       544  TIP3      H2            -12.0437496977       12.5038316165       29.6927869168  TIP3      480             0.0000000000
     10017       545  TIP3      OH2           -14.2331429508        7.1467083410       30.8372967659  TIP3      481             0.0000000000
     10018       545  TIP3      H1            -13.9074576655        6.5496157938       30.1462711972  TIP3      481             0.0000000000
     10019       545  TIP3      H2            -13.3947020252        7.3220261688       31.3043767531  TIP3      481             0.0000000000
     10020       546  TIP3      OH2            -5.6560128519       -1.1633551121       31.4837132166  TIP3      482             0.0000000000
     10021       546  TIP3      H1             -5.4607590469       -0.5947213204       32.2626393056  TIP3      482             0.0000000000
     10022       546  TIP3      H2             -5.0433982139       -0.7700011221       30.8435925075  TIP3      482             0.0000000000
     10023       547  TIP3      OH2           -11.0583287656        1.6316929595       31.1232244490  TIP3      483             0.0000000000
     10024       547  TIP3      H1            -10.8722202044        0.6765062015       31.1438040781  TIP3      483             0.0000000000
     10025       547  TIP3      H2            -11.1539661030        1.7617437874       30.1605847502  TIP3      483             0.0000000000
     10026       548  TIP3      OH2           -17.9943333465       -0.2747541131       28.3002049867  TIP3      484             0.0000000000
     10027       548  TIP3      H1            -17.8343237988        0.5471126924       27.7980460818  TIP3      484             0.0000000000
     10028       548  TIP3      H2            -18.3371370553       -0.8571091442       27.5934837593  TIP3      484             0.0000000000
     10029       549  TIP3      OH2           -10.2321347244       -0.2262545689       26.6793518023  TIP3      485             0.0000000000
     10030       549  TIP3      H1             -9.5872209807       -0.5071110066       27.3702022467  TIP3      485             0.0000000000
     10031       549  TIP3      H2             -9.6707034731        0.3600799874       26.1515120932  TIP3      485             0.0000000000
     10032       550  TIP3      OH2           -21.2032051349        2.1702059383       28.9907871153  TIP3      486             0.0000000000
     10033       550  TIP3      H1            -20.6193086162        1.5877418589       29.5003563985  TIP3      486             0.0000000000
     10034       550  TIP3      H2            -21.1568617558        1.7565738875       28.1166049066  TIP3      486             0.0000000000
     10035       551  TIP3      OH2           -16.1694028742        3.6925318556       28.3843723483  TIP3      487             0.0000000000
     10036       551  TIP3      H1            -15.4989105694        3.1043241266       28.7713562458  TIP3      487             0.0000000000
     10037       551  TIP3      H2            -16.6759133660        3.0484036685       27.8521206806  TIP3      487             0.0000000000
     10038       552  TIP3      OH2            -5.2161384098        0.2120881509       33.7827801924  TIP3      488             0.0000000000
     10039       552  TIP3      H1             -5.7779171012        1.0074573315       33.6431304523  TIP3      488             0.0000000000
     10040       552  TIP3      H2             -5.1778912092        0.1870146360       34.7479070010  TIP3      488             0.0000000000
     10041       553  TIP3      OH2           -18.9694464141       -1.3743223703       32.3355394674  TIP3      489             0.0000000000
     10042       553  TIP3      H1            -19.2873130091       -0.8030360112       31.6027141717  TIP3      489             0.0000000000
     10043       553  TIP3      H2            -19.6629079719       -1.1645453409       33.0088540357  TIP3      489             0.0000000000
     10044       554  TIP3      OH2           -11.7829780824        8.1089917525       25.8891217636  TIP3      490             0.0000000000
     10045       554  TIP3      H1            -12.0628442345        7.8764783069       24.9855851110  TIP3      490             0.0000000000
     10046       554  TIP3      H2            -12.0610885665        9.0540813764       25.9370800016  TIP3      490             0.0000000000
     10047       555  TIP3      OH2           -16.5402398225        6.2667111587       32.5565198042  TIP3      491             0.0000000000
     10048       555  TIP3      H1            -17.2340311949        6.9020321757       32.8349804357  TIP3      491             0.0000000000
     10049       555  TIP3      H2            -15.8296509622        6.8657016404       32.2710878549  TIP3      491             0.0000000000
     10050       556  TIP3      OH2            -8.3956130663       -0.8365322691       28.6731469699  TIP3      492             0.0000000000
     10051       556  TIP3      H1             -8.6005706320       -1.6014246687       29.2192275272  TIP3      492             0.0000000000
     10052       556  TIP3      H2             -7.7100207048       -0.4121566064       29.2146038414  TIP3      492             0.0000000000
     10053       557  TIP3      OH2           -19.4584217693        0.4674238589       30.4173150031  TIP3      493             0.0000000000
     10054       557  TIP3      H1            -18.8362692759        1.1663294151       30.7170984804  TIP3      493             0.0000000000
     10055       557  TIP3      H2            -18.9550560696        0.0956124887       29.6443650801  TIP3      493             0.0000000000
     10056       558  TIP3      OH2           -18.0445208642        8.2923073496       33.3811443754  TIP3      494             0.0000000000
     10057       558  TIP3      H1            -18.1107804619        9.2125469498       33.0677779470  TIP3      494             0.0000000000
     10058       558  TIP3      H2            -18.9244057809        8.1829567713       33.8133325995  TIP3      494             0.0000000000
     10059       559  TIP3      OH2           -21.5370485056        8.1846593045       24.0796377060  TIP3      495             0.0000000000
     10060       559  TIP3      H1            -22.2963793395        8.0591963428       23.4596335129  TIP3      495             0.0000000000
     10061       559  TIP3      H2            -21.9233350446        8.7608019345       24.7533828099  TIP3      495             0.0000000000
     10062       560  TIP3      OH2            -8.3970825231        9.5640091414       30.9610833686  TIP3      496             0.0000000000
     10063       560  TIP3      H1             -9.3658302404        9.6855134325       31.0803598081  TIP3      496             0.0000000000
     10064       560  TIP3      H2             -8.1278332131       10.4733298484       30.7343285452  TIP3      496             0.0000000000
     10065       561  TIP3      OH2            -8.0706778755       -2.1738180124       32.3393179188  TIP3      497             0.0000000000
     10066       561  TIP3      H1             -8.7830905345       -1.5291545064       32.2217075198  TIP3      497             0.0000000000
     10067       561  TIP3      H2             -7.3376265557       -1.7588655918       31.8362722635  TIP3      497             0.0000000000
     10068       562  TIP3      OH2           -15.1333115717       -4.0300702176       29.8074267959  TIP3      498             0.0000000000
     10069       562  TIP3      H1            -15.2975191229       -4.9908085210       29.7227279536  TIP3      498             0.0000000000
     10070       562  TIP3      H2            -16.0069829306       -3.7213080751       30.1328365558  TIP3      498             0.0000000000
     10071       563  TIP3      OH2           -10.1207437546       11.3436657412       27.5398027219  TIP3      499             0.0000000000
     10072       563  TIP3      H1             -9.7127893994       10.6182171186       27.0269653149  TIP3      499             0.0000000000
     10073       563  TIP3      H2             -9.6430728864       12.1154446056       27.1701869427  TIP3      499             0.0000000000
     10074       564  TIP3      OH2            -8.8297616705        9.2702386520       26.0181597732  TIP3      500             0.0000000000
     10075       564  TIP3      H1             -9.2340977940        8.6000222313       25.4445867490  TIP3      500             0.0000000000
     10076       564  TIP3      H2             -8.8660968617        8.7906427569       26.8680545880  TIP3      500             0.0000000000
     10077       565  TIP3      OH2            -7.3253349355        7.8858102495       34.5604958860  TIP3      501             0.0000000000
     10078       565  TIP3      H1             -7.1589170090        7.2004069592       33.8742319615  TIP3      501             0.0000000000
     10079       565  TIP3      H2             -7.0872443778        8.7043716225       34.0852375487  TIP3      501             0.0000000000
     10080       566  TIP3      OH2            -5.4086891045        4.1943648554       32.5754991269  TIP3      502             0.0000000000
     10081       566  TIP3      H1             -6.0484468314        4.9319520969       32.6138346284  TIP3      502             0.0000000000
     10082       566  TIP3      H2             -4.8869602340        4.4468201590       31.7903033012  TIP3      502             0.0000000000
     10083       567  TIP3      OH2            -9.3250240965        4.9656422227       25.2567002005  TIP3      503             0.0000000000
     10084       567  TIP3      H1            -10.0497829695        5.2111993738       25.8723778187  TIP3      503             0.0000000000
     10085       567  TIP3      H2             -8.8453710576        4.2849467457       25.7651440322  TIP3      503             0.0000000000
     10086       568  TIP3      OH2            -9.4092463612        3.1286105505       34.3875163664  TIP3      504             0.0000000000
     10087       568  TIP3      H1             -9.4219246345        3.9601538617       34.8875839842  TIP3      504             0.0000000000
     10088       568  TIP3      H2            -10.0299197031        3.3983506477       33.6815763569  TIP3      504             0.0000000000
     10089       569  TIP3      OH2           -17.7205093450        5.6134019156       27.1801086272  TIP3      505             0.0000000000
     10090       569  TIP3      H1            -18.0653357686        5.2178547433       26.3517486984  TIP3      505             0.0000000000
     10091       569  TIP3      H2            -17.0951814524        4.9290473168       27.5034266982  TIP3      505             0.0000000000
     10092       570  TIP3      OH2           -16.4547025040        8.9794993917       29.8405765328  TIP3      506             0.0000000000
     10093       570  TIP3      H1            -16.4225058864        8.5003805237       29.0016777486  TIP3      506             0.0000000000
     10094       570  TIP3      H2            -15.6476113901        8.6491547239       30.2843228870  TIP3      506             0.0000000000
     10095       571  TIP3      OH2           -17.4222247859        4.3550789261       30.8477516735  TIP3      507             0.0000000000
     10096       571  TIP3      H1            -16.8920648935        4.4427893271       30.0309909197  TIP3      507             0.0000000000
     10097       571  TIP3      H2            -17.0187897851        5.0373681781       31.4307575169  TIP3      507             0.0000000000
     10098       572  TIP3      OH2           -10.9664387632        9.9551670935       31.5403724014  TIP3      508             0.0000000000
     10099       572  TIP3      H1            -11.2624265813       10.5966719256       32.1972454738  TIP3      508             0.0000000000
     10100       572  TIP3      H2            -11.2206288707        9.1010657737       31.9567117518  TIP3      508             0.0000000000
     10101       573  TIP3      OH2           -16.4494295878        8.8076162430       35.5329749898  TIP3      509             0.0000000000
     10102       573  TIP3      H1            -16.9102666950        9.5168182808       36.0314475218  TIP3      509             0.0000000000
     10103       573  TIP3      H2            -17.1009989495        8.5935964373       34.8236774880  TIP3      509             0.0000000000
     10104       574  TIP3      OH2           -19.5038492083        4.9723356235       34.6720656492  TIP3      510             0.0000000000
     10105       574  TIP3      H1            -19.4347847415        5.6635315041       35.3577267004  TIP3      510             0.0000000000
     10106       574  TIP3      H2            -20.4636021267        5.0338579887       34.5009822386  TIP3      510             0.0000000000
     10107       575  TIP3      OH2           -12.7409132976       10.8895835921       26.3957498658  TIP3      511             0.0000000000
     10108       575  TIP3      H1            -12.3320508253       11.2078427879       27.2090843534  TIP3      511             0.0000000000
     10109       575  TIP3      H2            -13.2873934796       11.6349516061       26.1142307279  TIP3      511             0.0000000000
     10110       576  TIP3      OH2           -18.1880964496       10.8034780857       36.2817032950  TIP3      512             0.0000000000
     10111       576  TIP3      H1            -18.2763430340       10.7371498535       35.3131082855  TIP3      512             0.0000000000
     10112       576  TIP3      H2            -19.1128417988       10.6805875231       36.5736169906  TIP3      512             0.0000000000
     10113       577  TIP3      OH2            -6.7355969660       -4.0477690767       22.8774702123  TIP3      513             0.0000000000
     10114       577  TIP3      H1             -7.6939060139       -4.0411933622       23.0839076290  TIP3      513             0.0000000000
     10115       577  TIP3      H2             -6.5976046407       -3.2432806471       22.3914444848  TIP3      513             0.0000000000
     10116       578  TIP3      OH2           -18.6544639407        4.6160470989       24.7122001936  TIP3      514             0.0000000000
     10117       578  TIP3      H1            -18.9931722905        5.4474506783       24.3222781765  TIP3      514             0.0000000000
     10118       578  TIP3      H2            -19.4381522236        4.0586651090       24.6743817342  TIP3      514             0.0000000000
     10119       579  TIP3      OH2           -22.6014469745        7.1323614235       33.6678018095  TIP3      515             0.0000000000
     10120       579  TIP3      H1            -22.9728177959        7.0017775745       32.7882010909  TIP3      515             0.0000000000
     10121       579  TIP3      H2            -22.5372290140        6.2048217623       33.9422293171  TIP3      515             0.0000000000
     10122       580  TIP3      OH2           -22.8680140143        9.8413477808       30.3642190440  TIP3      516             0.0000000000
     10123       580  TIP3      H1            -21.9197164162        9.6700022994       30.4437811646  TIP3      516             0.0000000000
     10124       580  TIP3      H2            -23.0140099114       10.5430133953       31.0117046923  TIP3      516             0.0000000000
     10125       581  TIP3      OH2            -4.6787394712       10.5205691107       36.1631689109  TIP3      517             0.0000000000
     10126       581  TIP3      H1             -4.8108719648        9.5621101305       36.1216496205  TIP3      517             0.0000000000
     10127       581  TIP3      H2             -5.5591717943       10.7743100562       36.5294196658  TIP3      517             0.0000000000
     10128       582  TIP3      OH2           -13.7286039006       10.0417918663       35.0128226636  TIP3      518             0.0000000000
     10129       582  TIP3      H1            -13.6805262594       10.8869066347       35.5220396784  TIP3      518             0.0000000000
     10130       582  TIP3      H2            -14.5987901597        9.6735150810       35.2592856353  TIP3      518             0.0000000000
     10131       583  TIP3      OH2           -13.3051813097       13.8029911311       24.7613167589  TIP3      519             0.0000000000
     10132       583  TIP3      H1            -13.2881325527       13.7646733417       23.7899389802  TIP3      519             0.0000000000
     10133       583  TIP3      H2            -13.2426626829       14.7574675487       24.9557540220  TIP3      519             0.0000000000
     10134       584  TIP3      OH2           -19.6402471050       12.6896030603       26.6351046219  TIP3      520             0.0000000000
     10135       584  TIP3      H1            -19.5014703756       12.2634504563       27.5075830404  TIP3      520             0.0000000000
     10136       584  TIP3      H2            -20.4664302058       12.2394191094       26.3814167926  TIP3      520             0.0000000000
     10137       585  TIP3      OH2           -10.3561450902       12.9703174475       21.7696092602  TIP3      521             0.0000000000
     10138       585  TIP3      H1             -9.7656434108       12.3336820502       21.3114179611  TIP3      521             0.0000000000
     10139       585  TIP3      H2            -10.1741138243       12.7796625336       22.7048952703  TIP3      521             0.0000000000
     10140       586  TIP3      OH2           -10.5884782690       12.9551034247       24.6054898255  TIP3      522             0.0000000000
     10141       586  TIP3      H1            -11.5484315705       13.0076482292       24.7547145542  TIP3      522             0.0000000000
     10142       586  TIP3      H2            -10.3414370561       12.1804842088       25.1262714155  TIP3      522             0.0000000000
     10143       587  TIP3      OH2            -7.5353977406        1.9669258107       36.6124509108  TIP3      523             0.0000000000
     10144       587  TIP3      H1             -8.0308211114        2.4126504681       35.9041853128  TIP3      523             0.0000000000
     10145       587  TIP3      H2             -7.5683978114        1.0448590507       36.3170257260  TIP3      523             0.0000000000
     10146       588  TIP3      OH2           -20.3777938255        8.4184758330       34.6526538013  TIP3      524             0.0000000000
     10147       588  TIP3      H1            -20.2291561909        8.0772671542       35.5565589441  TIP3      524             0.0000000000
     10148       588  TIP3      H2            -21.2592378100        8.0293016865       34.4363189626  TIP3      524             0.0000000000
     10149       589  TIP3      OH2           -17.6804109011       -3.0884155523       30.5223590541  TIP3      525             0.0000000000
     10150       589  TIP3      H1            -18.5947136018       -3.2556843321       30.1889921706  TIP3      525             0.0000000000
     10151       589  TIP3      H2            -17.8626078064       -2.2983295013       31.0586228144  TIP3      525             0.0000000000
     10152       590  TIP3      OH2           -13.0655250375       -3.4877608869       33.9237089308  TIP3      526             0.0000000000
     10153       590  TIP3      H1            -12.6687238095       -3.9172825949       34.7044432966  TIP3      526             0.0000000000
     10154       590  TIP3      H2            -14.0400014075       -3.5768937878       34.0785360283  TIP3      526             0.0000000000
     10155       591  TIP3      OH2            -9.7890873724        0.4003868720       34.8328882631  TIP3      527             0.0000000000
     10156       591  TIP3      H1            -10.3622176760        0.1640785604       35.6015425851  TIP3      527             0.0000000000
     10157       591  TIP3      H2             -9.9724840446        1.3333976949       34.6221416658  TIP3      527             0.0000000000
     10158       592  TIP3      OH2           -17.6100845952        1.8482229448       31.8509798363  TIP3      528             0.0000000000
     10159       592  TIP3      H1            -18.3273484483        1.8579785478       32.5085858312  TIP3      528             0.0000000000
     10160       592  TIP3      H2            -17.6594315691        2.7500412774       31.4579521628  TIP3      528             0.0000000000
     10161       593  TIP3      OH2           -17.6302130727        1.9328669785       26.7044710047  TIP3      529             0.0000000000
     10162       593  TIP3      H1            -18.5942258562        1.7433641483       26.5846484776  TIP3      529             0.0000000000
     10163       593  TIP3      H2            -17.3012501190        1.6163513405       25.8443602893  TIP3      529             0.0000000000
     10164       594  TIP3      OH2           -12.1784559568        2.4566186491       25.3802831925  TIP3      530             0.0000000000
     10165       594  TIP3      H1            -12.5004896038        3.3135641799       25.0878584924  TIP3      530             0.0000000000
     10166       594  TIP3      H2            -11.4167820558        2.2761167923       24.8051924427  TIP3      530             0.0000000000
     10167       595  TIP3      OH2           -13.0918149986        2.6771118810       36.8819866161  TIP3      531             0.0000000000
     10168       595  TIP3      H1            -13.5907221489        1.8806664536       37.1884988042  TIP3      531             0.0000000000
     10169       595  TIP3      H2            -12.2492764455        2.5815163508       37.3564056833  TIP3      531             0.0000000000
     10170       596  TIP3      OH2           -11.0729735665        1.9722885456       28.3117400407  TIP3      532             0.0000000000
     10171       596  TIP3      H1            -11.3782926705        2.5210116822       27.5748159553  TIP3      532             0.0000000000
     10172       596  TIP3      H2            -10.9982289455        1.1095770458       27.8645862063  TIP3      532             0.0000000000
     10173       597  TIP3      OH2           -20.0530176177        2.0697117053       33.5102779247  TIP3      533             0.0000000000
     10174       597  TIP3      H1            -19.9220685018        2.4545109402       34.3893587648  TIP3      533             0.0000000000
     10175       597  TIP3      H2            -20.4089661468        1.1914392697       33.7226694711  TIP3      533             0.0000000000
     10176       598  TIP3      OH2           -22.1013733276       -0.7211702973       27.2423883742  TIP3      534             0.0000000000
     10177       598  TIP3      H1            -22.3858923293       -0.9214413583       28.1463064334  TIP3      534             0.0000000000
     10178       598  TIP3      H2            -22.7345666121       -1.2428895588       26.7266181352  TIP3      534             0.0000000000
     10179       599  TIP3      OH2           -22.0820410050        0.0403811377       22.9833261436  TIP3      535             0.0000000000
     10180       599  TIP3      H1            -21.6500458469        0.5138657755       22.2719994939  TIP3      535             0.0000000000
     10181       599  TIP3      H2            -22.8541681539        0.5810155173       23.1091895052  TIP3      535             0.0000000000
     10182       600  TIP3      OH2           -11.9198812944        3.5218510085       32.8202666249  TIP3      536             0.0000000000
     10183       600  TIP3      H1            -11.5058291750        2.8246399612       32.2663768359  TIP3      536             0.0000000000
     10184       600  TIP3      H2            -12.3915384234        3.0061699721       33.4969861465  TIP3      536             0.0000000000
     10185       601  TIP3      OH2           -15.0936469920       -0.4697057215       27.7126536168  TIP3      537             0.0000000000
     10186       601  TIP3      H1            -16.0275678481       -0.4725212915       27.9951943617  TIP3      537             0.0000000000
     10187       601  TIP3      H2            -14.6216611723       -0.6938444025       28.5297551303  TIP3      537             0.0000000000
     10188       602  TIP3      OH2           -20.1439250315        1.1301092510       26.4342026154  TIP3      538             0.0000000000
     10189       602  TIP3      H1            -21.0997228735        1.1968951265       26.2432599783  TIP3      538             0.0000000000
     10190       602  TIP3      H2            -20.0135589243        0.1769017565       26.2603427841  TIP3      538             0.0000000000
     10191       603  TIP3      OH2           -16.6895704579        1.1355868947       24.1304061796  TIP3      539             0.0000000000
     10192       603  TIP3      H1            -15.7432537808        1.1588880623       24.3883658287  TIP3      539             0.0000000000
     10193       603  TIP3      H2            -16.7869595383        1.8398037754       23.4975007630  TIP3      539             0.0000000000
     10194       604  TIP3      OH2           -10.6789894423       -1.2318219807       30.9406121888  TIP3      540             0.0000000000
     10195       604  TIP3      H1            -11.3586799577       -1.2100496979       31.6491553090  TIP3      540             0.0000000000
     10196       604  TIP3      H2            -11.1833131966       -1.5304785849       30.1702551214  TIP3      540             0.0000000000
     10197       605  TIP3      OH2            -7.5044122280       14.3912906533       37.2657241840  TIP3      541             0.0000000000
     10198       605  TIP3      H1             -7.2314922334       14.7571402906       36.4030027588  TIP3      541             0.0000000000
     10199       605  TIP3      H2             -6.7774727914       14.7038948419       37.8197488591  TIP3      541             0.0000000000
     10200       606  TIP3      OH2           -19.7503112869        6.8006248796       36.8317224190  TIP3      542             0.0000000000
     10201       606  TIP3      H1            -19.0344131669        7.0929476024       37.4217978316  TIP3      542             0.0000000000
     10202       606  TIP3      H2            -20.5289731125        6.9209291497       37.4318261046  TIP3      542             0.0000000000
     10203       607  TIP3      OH2           -13.8216149171        2.2787044656       29.5673275162  TIP3      543             0.0000000000
     10204       607  TIP3      H1            -13.1835099465        1.7381947391       29.0945311867  TIP3      543             0.0000000000
     10205       607  TIP3      H2            -13.9813963075        1.7434442097       30.3575984853  TIP3      543             0.0000000000
     10206       608  TIP3      OH2           -18.8515508952       -1.5524127819       25.9387299996  TIP3      544             0.0000000000
     10207       608  TIP3      H1            -19.1130803583       -2.4863349822       26.0327570934  TIP3      544             0.0000000000
     10208       608  TIP3      H2            -18.0200026555       -1.6524896324       25.4580256642  TIP3      544             0.0000000000
     10209       609  TIP3      OH2           -15.1740069785        0.5840897884       32.0073714286  TIP3      545             0.0000000000
     10210       609  TIP3      H1            -15.9906509932        1.1192858566       32.0741896146  TIP3      545             0.0000000000
     10211       609  TIP3      H2            -14.6080794935        0.9600790623       32.7046655740  TIP3      545             0.0000000000
     10212       610  TIP3      OH2           -14.5672824077        6.7468570969       23.7466465259  TIP3      546             0.0000000000
     10213       610  TIP3      H1            -15.3854644270        6.3488227838       23.3970848076  TIP3      546             0.0000000000
     10214       610  TIP3      H2            -14.8246914912        6.9955038973       24.6559463843  TIP3      546             0.0000000000
     10215       611  TIP3      OH2            -7.3599400988        6.0521512666       32.5053226779  TIP3      547             0.0000000000
     10216       611  TIP3      H1             -6.8264943002        6.5383444783       31.8470150038  TIP3      547             0.0000000000
     10217       611  TIP3      H2             -8.2305722352        6.0473252719       32.0584921409  TIP3      547             0.0000000000
     10218       612  TIP3      OH2           -13.0929002262        7.1214399110       34.9472280454  TIP3      548             0.0000000000
     10219       612  TIP3      H1            -13.4416941433        6.6586483408       35.7168436415  TIP3      548             0.0000000000
     10220       612  TIP3      H2            -13.3874353556        8.0269004809       35.0871294977  TIP3      548             0.0000000000
     10221       613  TIP3      OH2           -10.0357640580        1.5612451818       23.5370481168  TIP3      549             0.0000000000
     10222       613  TIP3      H1             -9.1758939374        1.4105330130       23.9904677765  TIP3      549             0.0000000000
     10223       613  TIP3      H2             -9.9061842443        2.3589014255       23.0457837322  TIP3      549             0.0000000000
     10224       614  TIP3      OH2           -19.4767980968        6.2440187171       29.5154521949  TIP3      550             0.0000000000
     10225       614  TIP3      H1            -18.8506890977        6.1456662972       28.7766990292  TIP3      550             0.0000000000
     10226       614  TIP3      H2            -19.3939155740        5.3887288410       29.9663528943  TIP3      550             0.0000000000
     10227       615  TIP3      OH2           -12.4441359261        8.2599839360       22.9378437845  TIP3      551             0.0000000000
     10228       615  TIP3      H1            -12.8688607998        9.1343749623       23.0499436922  TIP3      551             0.0000000000
     10229       615  TIP3      H2            -13.2267731356        7.6686722341       22.8967824545  TIP3      551             0.0000000000
     10230       616  TIP3      OH2           -22.2311515996        4.6625849945       34.8248330406  TIP3      552             0.0000000000
     10231       616  TIP3      H1            -22.0982701452        4.2380744807       35.6924918356  TIP3      552             0.0000000000
     10232       616  TIP3      H2            -23.0331912011        4.1902125453       34.5104684613  TIP3      552             0.0000000000
     10233       617  TIP3      OH2           -15.4712842776        4.1827593089       36.9168008998  TIP3      553             0.0000000000
     10234       617  TIP3      H1            -15.8114824998        3.8242341347       36.0806669010  TIP3      553             0.0000000000
     10235       617  TIP3      H2            -14.5615047432        3.8285176312       36.9121138892  TIP3      553             0.0000000000
     10236       618  TIP3      OH2           -10.7591742913        9.5277064584       34.9196762344  TIP3      554             0.0000000000
     10237       618  TIP3      H1            -11.6844813488        9.6882833759       34.6702691211  TIP3      554             0.0000000000
     10238       618  TIP3      H2            -10.8125421459        9.8241247017       35.8497468374  TIP3      554             0.0000000000
     10239       619  TIP3      OH2            -5.1629142393        1.7106226887       23.3340078389  TIP3      555             0.0000000000
     10240       619  TIP3      H1             -5.6648912810        1.4158917389       22.5564724615  TIP3      555             0.0000000000
     10241       619  TIP3      H2             -5.0304520167        2.6371561347       23.0590762060  TIP3      555             0.0000000000
     10242       620  TIP3      OH2            -5.1296280615        7.5478857275       36.0617725511  TIP3      556             0.0000000000
     10243       620  TIP3      H1             -6.0260508648        7.7772180391       35.7150822082  TIP3      556             0.0000000000
     10244       620  TIP3      H2             -4.5945214417        7.4904639111       35.2391793293  TIP3      556             0.0000000000
     10245       621  TIP3      OH2            -6.7400547652       10.4928880965       23.6739888975  TIP3      557             0.0000000000
     10246       621  TIP3      H1             -7.2327878691        9.7442724966       24.0378699011  TIP3      557             0.0000000000
     10247       621  TIP3      H2             -6.6276309354       10.2984808166       22.7482037360  TIP3      557             0.0000000000
     10248       622  TIP3      OH2            -9.6070653378        5.3368943728       30.7812043777  TIP3      558             0.0000000000
     10249       622  TIP3      H1            -10.5478658316        5.1439031311       30.6422754343  TIP3      558             0.0000000000
     10250       622  TIP3      H2             -9.1775072642        4.5921880144       30.3189825995  TIP3      558             0.0000000000
     10251       623  TIP3      OH2           -17.1078377377        9.6546955496       26.8420299657  TIP3      559             0.0000000000
     10252       623  TIP3      H1            -16.6082876519       10.4791141726       26.7190037624  TIP3      559             0.0000000000
     10253       623  TIP3      H2            -17.9889544455        9.9190688302       26.5579618586  TIP3      559             0.0000000000
     10254       624  TIP3      OH2           -21.4031954912        4.4742863014       21.6114015914  TIP3      560             0.0000000000
     10255       624  TIP3      H1            -20.8162096956        5.2220340811       21.8182148432  TIP3      560             0.0000000000
     10256       624  TIP3      H2            -22.2741597160        4.8743881574       21.7268534861  TIP3      560             0.0000000000
     10257       625  TIP3      OH2           -15.6724609859        7.3272441305       26.4580233503  TIP3      561             0.0000000000
     10258       625  TIP3      H1            -16.0085320413        8.2455768414       26.4796937581  TIP3      561             0.0000000000
     10259       625  TIP3      H2            -16.4224795678        6.8352724139       26.8393900278  TIP3      561             0.0000000000
     10260       626  TIP3      OH2           -15.2600997853       11.5406932990       32.8540142219  TIP3      562             0.0000000000
     10261       626  TIP3      H1            -14.7643068685       12.3106634281       32.5311143527  TIP3      562             0.0000000000
     10262       626  TIP3      H2            -14.6190746968       11.1681111531       33.4875088408  TIP3      562             0.0000000000
     10263       627  TIP3      OH2           -17.0052090966       12.3007360822       25.9169642401  TIP3      563             0.0000000000
     10264       627  TIP3      H1            -17.9609928667       12.4490859094       26.0983519162  TIP3      563             0.0000000000
     10265       627  TIP3      H2            -16.6211775930       13.1188750139       26.2800112933  TIP3      563             0.0000000000
     10266       628  TIP3      OH2           -11.7678227959        7.4787345632       32.4060947006  TIP3      564             0.0000000000
     10267       628  TIP3      H1            -12.0293990903        7.3169820019       33.3377286184  TIP3      564             0.0000000000
     10268       628  TIP3      H2            -11.0973424840        6.7924527524       32.2489954530  TIP3      564             0.0000000000
     10269       629  TIP3      OH2            -9.3816389649        8.5733612828       21.5522785083  TIP3      565             0.0000000000
     10270       629  TIP3      H1             -9.1601596600        8.1063015131       22.3801049993  TIP3      565             0.0000000000
     10271       629  TIP3      H2            -10.3518957091        8.5083380818       21.5760510547  TIP3      565             0.0000000000
     10272       630  TIP3      OH2            -8.8746235526       12.0906745609       34.9062629907  TIP3      566             0.0000000000
     10273       630  TIP3      H1             -9.5916644732       11.6087237626       34.4534760891  TIP3      566             0.0000000000
     10274       630  TIP3      H2             -8.7127564663       12.7908301308       34.2357865555  TIP3      566             0.0000000000
     10275       631  TIP3      OH2           -20.8105878131       -0.6509666924       34.2089604209  TIP3      567             0.0000000000
     10276       631  TIP3      H1            -21.6844957637       -0.2458029142       34.3962567801  TIP3      567             0.0000000000
     10277       631  TIP3      H2            -20.9097956599       -1.4726440929       34.7121354911  TIP3      567             0.0000000000
     10278       632  TIP3      OH2            -8.5864919795        7.2108133028       23.7790590963  TIP3      568             0.0000000000
     10279       632  TIP3      H1             -8.8615952099        6.4184178425       24.2992767145  TIP3      568             0.0000000000
     10280       632  TIP3      H2             -7.6440575747        7.2628923946       23.9907770631  TIP3      568             0.0000000000
     10281       633  TIP3      OH2           -21.2387053436       11.0880284490       32.7834254191  TIP3      569             0.0000000000
     10282       633  TIP3      H1            -20.8432478995       10.2034212444       32.7307926586  TIP3      569             0.0000000000
     10283       633  TIP3      H2            -20.8781172903       11.4124156719       33.6115014554  TIP3      569             0.0000000000
     10284       634  TIP3      OH2           -19.9277778111        6.4350448143       22.8951401473  TIP3      570             0.0000000000
     10285       634  TIP3      H1            -20.6250010583        6.8321384655       23.4763525534  TIP3      570             0.0000000000
     10286       634  TIP3      H2            -19.3913771444        7.2161882094       22.7279958571  TIP3      570             0.0000000000
     10287       635  TIP3      OH2           -12.0859065507       -0.8674878284       33.3049779020  TIP3      571             0.0000000000
     10288       635  TIP3      H1            -11.3763356733       -0.7978026226       33.9490661865  TIP3      571             0.0000000000
     10289       635  TIP3      H2            -12.4724690021       -1.7386083062       33.5250962639  TIP3      571             0.0000000000
     10290       636  TIP3      OH2           -13.6607318863       10.8451921918       23.1444229187  TIP3      572             0.0000000000
     10291       636  TIP3      H1            -14.4970851389       11.3209542456       23.2758663421  TIP3      572             0.0000000000
     10292       636  TIP3      H2            -13.1495274185       11.4250326039       22.5600826237  TIP3      572             0.0000000000
     10293       637  TIP3      OH2           -14.1731556479        0.4643912635       25.1742573681  TIP3      573             0.0000000000
     10294       637  TIP3      H1            -13.3659828363        1.0158681466       25.2507838699  TIP3      573             0.0000000000
     10295       637  TIP3      H2            -14.4086663540        0.2809635145       26.1106429489  TIP3      573             0.0000000000
     10296       638  TIP3      OH2           -13.5633399569        1.4745441765       34.3954851925  TIP3      574             0.0000000000
     10297       638  TIP3      H1            -13.4879856115        2.0141753933       35.2082503606  TIP3      574             0.0000000000
     10298       638  TIP3      H2            -12.8921217168        0.7845222020       34.4691280038  TIP3      574             0.0000000000
     10299       639  TIP3      OH2           -13.3029903123       -2.4793011077       25.9953954079  TIP3      575             0.0000000000
     10300       639  TIP3      H1            -13.6426609276       -1.9092363389       26.7084132243  TIP3      575             0.0000000000
     10301       639  TIP3      H2            -12.5828423545       -1.9027716646       25.6845375846  TIP3      575             0.0000000000
     10302       640  TIP3      OH2           -16.3378471176       11.9919893514       23.1691871107  TIP3      576             0.0000000000
     10303       640  TIP3      H1            -15.9976732515       12.8024659815       22.7885672031  TIP3      576             0.0000000000
     10304       640  TIP3      H2            -16.5392932358       12.1924790086       24.1104895468  TIP3      576             0.0000000000
     10305       641  TIP3      OH2           -17.6179822519       -1.4055773178       22.8030539934  TIP3      577             0.0000000000
     10306       641  TIP3      H1            -17.6351858431       -0.5227391930       23.1850651097  TIP3      577             0.0000000000
     10307       641  TIP3      H2            -16.7175909504       -1.7029828430       22.9981116882  TIP3      577             0.0000000000
     10308       642  TIP3      OH2            -7.4177578509       -0.6719600674       35.2389149357  TIP3      578             0.0000000000
     10309       642  TIP3      H1             -8.3352850299       -0.3341841557       35.0934241241  TIP3      578             0.0000000000
     10310       642  TIP3      H2             -7.1038233139       -0.6995431495       34.3174178506  TIP3      578             0.0000000000
     10311       643  TIP3      OH2            -8.7721583671        3.1157570978       29.2196547749  TIP3      579             0.0000000000
     10312       643  TIP3      H1             -9.5902856203        2.6532695817       28.9439976913  TIP3      579             0.0000000000
     10313       643  TIP3      H2             -8.2762629974        2.4388002475       29.7300236796  TIP3      579             0.0000000000
     10314       644  TIP3      OH2            -7.7111720367       12.4008385099       30.8784692806  TIP3      580             0.0000000000
     10315       644  TIP3      H1             -7.7864941165       13.0733902957       30.1730420685  TIP3      580             0.0000000000
     10316       644  TIP3      H2             -6.7472104887       12.4341103372       31.0555579636  TIP3      580             0.0000000000
     10317       645  TIP3      OH2           -20.1981327860       -3.5387270401       29.7357166537  TIP3      581             0.0000000000
     10318       645  TIP3      H1            -20.3707886775       -3.4780543507       28.7656284398  TIP3      581             0.0000000000
     10319       645  TIP3      H2            -20.6808425338       -4.3681228315       29.9279826165  TIP3      581             0.0000000000
     10320       646  TIP3      OH2           -21.2811217649       10.5186306254       25.9447421593  TIP3      582             0.0000000000
     10321       646  TIP3      H1            -22.1654617638       10.8600878322       25.7879659299  TIP3      582             0.0000000000
     10322       646  TIP3      H2            -20.8693563649       10.7992342237       25.1189314050  TIP3      582             0.0000000000
     10323       647  TIP3      OH2           -22.0300332944       13.0614182788       37.0658544961  TIP3      583             0.0000000000
     10324       647  TIP3      H1            -21.4792080970       12.9469260631       37.8655309127  TIP3      583             0.0000000000
     10325       647  TIP3      H2            -22.4652378270       12.2034226509       37.0280264282  TIP3      583             0.0000000000
     10326       648  TIP3      OH2           -17.3673548264       11.9787415802       38.7075191668  TIP3      584             0.0000000000
     10327       648  TIP3      H1            -16.6163090876       11.4839941173       39.0545562109  TIP3      584             0.0000000000
     10328       648  TIP3      H2            -17.4309641489       11.6696093607       37.7861967381  TIP3      584             0.0000000000
     10329       649  TIP3      OH2           -13.2493442059       11.4947754315       20.3291380522  TIP3      585             0.0000000000
     10330       649  TIP3      H1            -13.9279674955       10.8118896607       20.2739413992  TIP3      585             0.0000000000
     10331       649  TIP3      H2            -12.5605655752       11.0445635814       19.8137801997  TIP3      585             0.0000000000
     10332       650  TIP3      OH2           -10.9186433568       10.3958876319       37.5085129651  TIP3      586             0.0000000000
     10333       650  TIP3      H1            -11.2272950265        9.5071358786       37.7888587566  TIP3      586             0.0000000000
     10334       650  TIP3      H2            -10.1310825361       10.5122445707       38.0759224898  TIP3      586             0.0000000000
     10335       651  TIP3      OH2            -8.7235065588       11.2010386799       20.3023057299  TIP3      587             0.0000000000
     10336       651  TIP3      H1             -8.4683076718       10.4010731379       20.7762252906  TIP3      587             0.0000000000
     10337       651  TIP3      H2             -7.9363645692       11.5446740029       19.8629933084  TIP3      587             0.0000000000
     10338       652  TIP3      OH2           -22.0027741087        6.8761702125       38.1029999159  TIP3      588             0.0000000000
     10339       652  TIP3      H1            -21.9843274088        5.9277645720       37.8949754838  TIP3      588             0.0000000000
     10340       652  TIP3      H2            -22.8852161230        7.0988082404       37.7366936146  TIP3      588             0.0000000000
     10341       653  TIP3      OH2           -15.4538059034        6.8463370500       37.5045539593  TIP3      589             0.0000000000
     10342       653  TIP3      H1            -15.7819718183        7.1814195381       36.6471944577  TIP3      589             0.0000000000
     10343       653  TIP3      H2            -15.4017967790        5.8658260517       37.3794834384  TIP3      589             0.0000000000
     10344       654  TIP3      OH2            -9.7722346300        6.6828121689       34.9129823117  TIP3      590             0.0000000000
     10345       654  TIP3      H1             -8.9636590788        7.2418406156       34.8815988103  TIP3      590             0.0000000000
     10346       654  TIP3      H2            -10.4473008871        7.3789718815       34.9305702592  TIP3      590             0.0000000000
     10347       655  TIP3      OH2           -21.4249037969        3.9865628462       37.5321308742  TIP3      591             0.0000000000
     10348       655  TIP3      H1            -20.7475464610        3.3004622069       37.4144233663  TIP3      591             0.0000000000
     10349       655  TIP3      H2            -21.3672114404        4.1093551844       38.4949953960  TIP3      591             0.0000000000
     10350       656  TIP3      OH2           -16.5306279327        5.2316974951       22.5901235088  TIP3      592             0.0000000000
     10351       656  TIP3      H1            -17.0582054999        4.7446785810       23.2413771446  TIP3      592             0.0000000000
     10352       656  TIP3      H2            -16.2927097183        4.5935350957       21.9123203497  TIP3      592             0.0000000000
     10353       657  TIP3      OH2           -17.3240430529        3.0227945831       34.8524742219  TIP3      593             0.0000000000
     10354       657  TIP3      H1            -17.9518431738        3.7219611077       35.1054733065  TIP3      593             0.0000000000
     10355       657  TIP3      H2            -16.9224770315        3.4028671932       34.0525229757  TIP3      593             0.0000000000
     10356       658  TIP3      OH2           -12.2480874428        5.6083910731       38.2210533499  TIP3      594             0.0000000000
     10357       658  TIP3      H1            -11.3029196776        5.5438599448       38.0393981054  TIP3      594             0.0000000000
     10358       658  TIP3      H2            -12.4312146136        4.8256225294       38.7678875483  TIP3      594             0.0000000000
     10359       659  TIP3      OH2            -6.2254294905        5.7444749706       20.1809677138  TIP3      595             0.0000000000
     10360       659  TIP3      H1             -6.3236012393        5.3504388448       19.3060393676  TIP3      595             0.0000000000
     10361       659  TIP3      H2             -6.1824706994        6.6857450471       19.9822183358  TIP3      595             0.0000000000
     10362       660  TIP3      OH2           -16.8682997315        0.4196510093       35.8852126361  TIP3      596             0.0000000000
     10363       660  TIP3      H1            -16.8332329471       -0.2957288573       35.2239473681  TIP3      596             0.0000000000
     10364       660  TIP3      H2            -16.9910108539        1.2182295118       35.3360456761  TIP3      596             0.0000000000
     10365       661  TIP3      OH2           -16.5141108359       -1.2257274485       33.4717290521  TIP3      597             0.0000000000
     10366       661  TIP3      H1            -16.0128030102       -0.7556370100       32.7576929128  TIP3      597             0.0000000000
     10367       661  TIP3      H2            -17.4146441212       -1.2885487693       33.0799700964  TIP3      597             0.0000000000
     10368       662  TIP3      OH2           -15.0002021193        4.3060707181       33.7130379626  TIP3      598             0.0000000000
     10369       662  TIP3      H1            -14.2411998891        4.1272929435       33.1518027898  TIP3      598             0.0000000000
     10370       662  TIP3      H2            -15.3748840232        5.1235811280       33.3491764682  TIP3      598             0.0000000000
     10371       663  TIP3      OH2           -10.6095357709        2.0025636177       38.6465689007  TIP3      599             0.0000000000
     10372       663  TIP3      H1            -10.3590782495        1.0701236583       38.5715153124  TIP3      599             0.0000000000
     10373       663  TIP3      H2             -9.7526657358        2.4580229844       38.7044615786  TIP3      599             0.0000000000
     10374       664  TIP3      OH2            -9.2378941428        4.8228297217       36.8730413193  TIP3      600             0.0000000000
     10375       664  TIP3      H1             -9.5054252045        5.5267095364       36.2412965910  TIP3      600             0.0000000000
     10376       664  TIP3      H2             -8.2823599186        4.7880133928       36.6800973489  TIP3      600             0.0000000000
     10377       665  TIP3      OH2           -18.4765189005        1.6707712461       37.8279553544  TIP3      601             0.0000000000
     10378       665  TIP3      H1            -19.2207706130        1.0575619054       37.6668783976  TIP3      601             0.0000000000
     10379       665  TIP3      H2            -17.8256669010        1.3071633263       37.1984327300  TIP3      601             0.0000000000
     10380       666  TIP3      OH2           -15.7339340347       -3.7852834070       33.8197745338  TIP3      602             0.0000000000
     10381       666  TIP3      H1            -15.9491117596       -2.8252009030       33.7428879275  TIP3      602             0.0000000000
     10382       666  TIP3      H2            -16.4800875827       -4.1729530099       33.3294858386  TIP3      602             0.0000000000
     10383       667  TIP3      OH2           -14.4748955829        0.5350168354       37.5163336117  TIP3      603             0.0000000000
     10384       667  TIP3      H1            -14.8047222832        0.2975312393       38.4038931061  TIP3      603             0.0000000000
     10385       667  TIP3      H2            -15.2523077174        0.3245195859       36.9642621051  TIP3      603             0.0000000000
     10386       668  TIP3      OH2           -11.7420752384       -0.2970605158       36.6314358724  TIP3      604             0.0000000000
     10387       668  TIP3      H1            -12.7096941115       -0.2443229124       36.7123477179  TIP3      604             0.0000000000
     10388       668  TIP3      H2            -11.4989678046       -0.9505543269       37.3180011488  TIP3      604             0.0000000000
     10389       669  TIP3      OH2           -10.1891002766       -1.6987379251       38.4591226502  TIP3      605             0.0000000000
     10390       669  TIP3      H1            -10.1991652082       -2.6772923168       38.5081145619  TIP3      605             0.0000000000
     10391       669  TIP3      H2            -10.3915330153       -1.4040687550       39.3681032453  TIP3      605             0.0000000000
     10392       670  TIP3      OH2           -20.2009656877       -0.3677712074       37.6128409499  TIP3      606             0.0000000000
     10393       670  TIP3      H1            -20.1425448775       -1.1372371297       37.0231448552  TIP3      606             0.0000000000
     10394       670  TIP3      H2            -20.4429979905       -0.7609521396       38.4715364633  TIP3      606             0.0000000000
     10395       671  TIP3      OH2           -15.5737589437       -4.3653442554       36.5644055727  TIP3      607             0.0000000000
     10396       671  TIP3      H1            -14.9025381435       -5.0781573643       36.5868372117  TIP3      607             0.0000000000
     10397       671  TIP3      H2            -15.6614663456       -4.2662135643       35.5933743914  TIP3      607             0.0000000000
     10398       672  TIP3      OH2           -15.2216520448       -2.8256458485       38.7421242579  TIP3      608             0.0000000000
     10399       672  TIP3      H1            -15.3297726437       -3.2981154677       37.8806040769  TIP3      608             0.0000000000
     10400       672  TIP3      H2            -15.7038905524       -1.9883042098       38.5835269208  TIP3      608             0.0000000000
     10401       673  TIP3      OH2            23.5973859898       13.8546631209       26.0602350774  TIP3      609             0.0000000000
     10402       673  TIP3      H1             22.6801473819       13.6516968948       25.8740955577  TIP3      609             0.0000000000
     10403       673  TIP3      H2             23.7317664479       13.4351969363       26.9428554969  TIP3      609             0.0000000000
     10404       674  TIP3      OH2           -22.5250470154       12.2494606502       28.1296530618  TIP3      610             0.0000000000
     10405       674  TIP3      H1            -22.8148092773       11.3592631885       28.3608002171  TIP3      610             0.0000000000
     10406       674  TIP3      H2            -22.2560486440       12.6185792549       28.9958260645  TIP3      610             0.0000000000
     10407       675  TIP3      OH2            -4.9902145653       13.0376931434       31.0755421360  TIP3      611             0.0000000000
     10408       675  TIP3      H1             -4.9480339392       13.1699971223       32.0384654781  TIP3      611             0.0000000000
     10409       675  TIP3      H2             -4.2888530967       13.6256179150       30.7800476816  TIP3      611             0.0000000000
     10410       676  TIP3      OH2            -5.4243323824       12.6155457777       34.0239972686  TIP3      612             0.0000000000
     10411       676  TIP3      H1             -5.8995742089       11.8525443815       33.6363573595  TIP3      612             0.0000000000
     10412       676  TIP3      H2             -4.9783627726       12.1713276312       34.7632316868  TIP3      612             0.0000000000
     10413       677  TIP3      OH2            -6.9824106720        8.3289587314       38.7242099064  TIP3      613             0.0000000000
     10414       677  TIP3      H1             -7.8963117476        8.3260225517       39.0716471928  TIP3      613             0.0000000000
     10415       677  TIP3      H2             -6.6192015480        9.1508560660       39.1067313658  TIP3      613             0.0000000000
     10416       678  TIP3      OH2            -5.6255948322        6.6302441754       24.0917325868  TIP3      614             0.0000000000
     10417       678  TIP3      H1             -4.8643127795        7.0990327202       24.4322441141  TIP3      614             0.0000000000
     10418       678  TIP3      H2             -5.7157130317        5.9672614254       24.8147249899  TIP3      614             0.0000000000
     10419       679  TIP3      OH2            -5.3078072239        4.7892154924       26.0341117185  TIP3      615             0.0000000000
     10420       679  TIP3      H1             -6.0793773628        4.2905169771       26.3958876673  TIP3      615             0.0000000000
     10421       679  TIP3      H2             -4.7266978365        4.8581740531       26.8190006496  TIP3      615             0.0000000000
     10422       680  TIP3      OH2            -5.5562088459        7.4268685333       31.0145581717  TIP3      616             0.0000000000
     10423       680  TIP3      H1             -4.7582352745        7.0370599836       30.6177990655  TIP3      616             0.0000000000
     10424       680  TIP3      H2             -5.4061182997        8.3819171058       30.8506215176  TIP3      616             0.0000000000
     10425       681  TIP3      OH2            -6.9919932425       10.3503891386       33.2733500511  TIP3      617             0.0000000000
     10426       681  TIP3      H1             -7.6836047147       10.7028102014       33.8540392586  TIP3      617             0.0000000000
     10427       681  TIP3      H2             -7.5330958657        9.9656583634       32.5508536321  TIP3      617             0.0000000000
     10428       682  TIP3      OH2            -4.9832001694        4.5841859123       22.3698259479  TIP3      618             0.0000000000
     10429       682  TIP3      H1             -5.6074662088        4.9043720544       21.6861682409  TIP3      618             0.0000000000
     10430       682  TIP3      H2             -5.1299486216        5.2349306808       23.0743940437  TIP3      618             0.0000000000
     10431       683  TIP3      OH2            -6.8211871476        1.7874053323       20.9309892416  TIP3      619             0.0000000000
     10432       683  TIP3      H1             -6.4531114891        2.4395437079       20.3133214593  TIP3      619             0.0000000000
     10433       683  TIP3      H2             -6.6938214179        0.9925481966       20.4223779483  TIP3      619             0.0000000000
     10434       684  TIP3      OH2            -7.5087342268        3.2481560116       26.6048449881  TIP3      620             0.0000000000
     10435       684  TIP3      H1             -7.6403499025        2.2882655865       26.5324606988  TIP3      620             0.0000000000
     10436       684  TIP3      H2             -7.7920033422        3.4075736125       27.5243980395  TIP3      620             0.0000000000
     10437       685  TIP3      OH2           -22.5116265693        5.3156773006       30.7132449557  TIP3      621             0.0000000000
     10438       685  TIP3      H1            -22.3839890621        5.2385888594       29.7409351566  TIP3      621             0.0000000000
     10439       685  TIP3      H2            -21.5879937199        5.1670600299       30.9936194121  TIP3      621             0.0000000000
     10440       686  TIP3      OH2            -6.6038278324        5.1845378371       36.3146841602  TIP3      622             0.0000000000
     10441       686  TIP3      H1             -5.9973422443        4.4219405441       36.4199980548  TIP3      622             0.0000000000
     10442       686  TIP3      H2             -5.9972807801        5.9549820757       36.3018013104  TIP3      622             0.0000000000
     10443       687  TIP3      OH2            -5.1161186915        3.0464601891       36.9453615591  TIP3      623             0.0000000000
     10444       687  TIP3      H1             -6.0081617784        2.6623264253       36.8035803978  TIP3      623             0.0000000000
     10445       687  TIP3      H2             -4.5554683644        2.2505681388       36.8797905735  TIP3      623             0.0000000000
     10446       688  TIP3      OH2            -7.8546505735        0.7892294475       24.9750298015  TIP3      624             0.0000000000
     10447       688  TIP3      H1             -7.5515185154       -0.1164214351       25.2186904274  TIP3      624             0.0000000000
     10448       688  TIP3      H2             -7.0181466934        1.1961888989       24.7093603642  TIP3      624             0.0000000000
     10449       689  TIP3      OH2            -7.1748576781        1.3546388767       30.5114926965  TIP3      625             0.0000000000
     10450       689  TIP3      H1             -6.2124795675        1.5728756711       30.4952055612  TIP3      625             0.0000000000
     10451       689  TIP3      H2             -7.3504003764        1.4881428760       31.4549257800  TIP3      625             0.0000000000
     10452       690  TIP3      OH2            -7.1072194966        2.0642414982       33.2800711582  TIP3      626             0.0000000000
     10453       690  TIP3      H1             -7.9976091206        2.3505656049       33.5774599005  TIP3      626             0.0000000000
     10454       690  TIP3      H2             -6.6714533258        2.9243203427       33.0621098183  TIP3      626             0.0000000000
     10455       691  TIP3      OH2           -22.3665250948        0.3064655825       36.1418598317  TIP3      627             0.0000000000
     10456       691  TIP3      H1            -21.7019126994        0.5091528753       36.8243268294  TIP3      627             0.0000000000
     10457       691  TIP3      H2            -23.0866606692        0.0538582435       36.7349504463  TIP3      627             0.0000000000
     10458       692  TIP3      OH2            -4.8181863908       -3.8344781142       38.6033920361  TIP3      628             0.0000000000
     10459       692  TIP3      H1             -4.4695433692       -4.5079988513       37.9936265866  TIP3      628             0.0000000000
     10460       692  TIP3      H2             -4.7562467624       -3.0377858713       38.0388799965  TIP3      628             0.0000000000
     10461       693  TIP3      OH2            -7.1388562234       -1.9405048239       25.0646126994  TIP3      629             0.0000000000
     10462       693  TIP3      H1             -6.8937216932       -2.3158924918       25.9412127538  TIP3      629             0.0000000000
     10463       693  TIP3      H2             -7.7442527376       -2.6086102442       24.6831629531  TIP3      629             0.0000000000
     10464       694  TIP3      OH2           -21.7239981145       -1.0975801063       29.8951135395  TIP3      630             0.0000000000
     10465       694  TIP3      H1            -21.2230326383       -1.9335723641       29.9790907516  TIP3      630             0.0000000000
     10466       694  TIP3      H2            -21.0584563184       -0.4259158647       30.0904097813  TIP3      630             0.0000000000
     10467       695  TIP3      OH2           -23.3932566429        2.1003854031       30.5053581782  TIP3      631             0.0000000000
     10468       695  TIP3      H1            -22.7321757064        1.6750191305       29.9387674718  TIP3      631             0.0000000000
     10469       695  TIP3      H2            -22.8405434895        2.7835755248       30.8968711672  TIP3      631             0.0000000000
     10470       696  TIP3      OH2            -5.3152835547       -1.7506718392       36.9566643434  TIP3      632             0.0000000000
     10471       696  TIP3      H1             -6.2479950168       -1.4634395693       36.9150072793  TIP3      632             0.0000000000
     10472       696  TIP3      H2             -5.3147085434       -2.3201706709       36.1723408940  TIP3      632             0.0000000000
     10473       697  TIP3      OH2           -22.6973159846       -1.9810662395       24.9506169599  TIP3      633             0.0000000000
     10474       697  TIP3      H1            -23.6233840577       -1.7407320900       25.0904167139  TIP3      633             0.0000000000
     10475       697  TIP3      H2            -22.3868700934       -1.3671155391       24.2566970132  TIP3      633             0.0000000000
     10476       698  TIP3      OH2            -8.2365769273       13.0887020712       26.6954397504  TIP3      634             0.0000000000
     10477       698  TIP3      H1             -7.5482124172       12.8747235296       26.0433002909  TIP3      634             0.0000000000
     10478       698  TIP3      H2             -7.7650005084       13.6144890451       27.3613927555  TIP3      634             0.0000000000
     10479       699  TIP3      OH2            23.9260934408       -3.1233499765       32.9664904594  TIP3      635             0.0000000000
     10480       699  TIP3      H1             23.2724917883       -3.4286883240       33.6248581260  TIP3      635             0.0000000000
     10481       699  TIP3      H2             23.3912109660       -2.4872891831       32.4690009280  TIP3      635             0.0000000000
     10482       700  TIP3      OH2           -20.8343258404        9.9885732471       37.2851145669  TIP3      636             0.0000000000
     10483       700  TIP3      H1            -21.6681542444       10.1482511337       36.8351075149  TIP3      636             0.0000000000
     10484       700  TIP3      H2            -21.0907727390        9.8654456973       38.2055371320  TIP3      636             0.0000000000
     10485       701  TIP3      OH2           -17.9585904715       11.0295833997       33.4956244969  TIP3      637             0.0000000000
     10486       701  TIP3      H1            -18.2398894101       11.9320831903       33.2623004207  TIP3      637             0.0000000000
     10487       701  TIP3      H2            -17.0201744705       11.0922242195       33.2162029756  TIP3      637             0.0000000000
     10488       702  TIP3      OH2           -13.6080055876       12.4454292969       36.3892631124  TIP3      638             0.0000000000
     10489       702  TIP3      H1            -13.4916420732       12.0946533082       37.2995600741  TIP3      638             0.0000000000
     10490       702  TIP3      H2            -12.7006212290       12.7669163646       36.1727695348  TIP3      638             0.0000000000
     10491       703  TIP3      OH2           -11.3250663013       13.7181585361       35.7268900420  TIP3      639             0.0000000000
     10492       703  TIP3      H1            -10.5774245459       13.1585056645       35.4843238296  TIP3      639             0.0000000000
     10493       703  TIP3      H2            -10.9611034929       14.1731857833       36.5162138040  TIP3      639             0.0000000000
     10494       704  TIP3      OH2            -6.2874858697       -3.6727908503       34.8519018690  TIP3      640             0.0000000000
     10495       704  TIP3      H1             -7.1081694453       -3.3619718729       34.4286672777  TIP3      640             0.0000000000
     10496       704  TIP3      H2             -6.1345767387       -4.5110645792       34.3532457798  TIP3      640             0.0000000000
     10497       705  TIP3      OH2           -20.6078875140       14.1866018297       33.4697570931  TIP3      641             0.0000000000
     10498       705  TIP3      H1            -21.2778085538       14.7944171410       33.0805878169  TIP3      641             0.0000000000
     10499       705  TIP3      H2            -20.8647341943       14.1712014966       34.4003874185  TIP3      641             0.0000000000
     10500       706  TIP3      OH2           -18.0297135479       13.8575219255       32.5894206686  TIP3      642             0.0000000000
     10501       706  TIP3      H1            -18.9309214609       14.0174908571       32.9503473373  TIP3      642             0.0000000000
     10502       706  TIP3      H2            -18.0648301586       14.4179551241       31.7916485892  TIP3      642             0.0000000000
     10503       707  TIP3      OH2           -13.3288778856       13.7366928011       31.7385729599  TIP3      643             0.0000000000
     10504       707  TIP3      H1            -13.7888215317       14.2963323137       31.0940977021  TIP3      643             0.0000000000
     10505       707  TIP3      H2            -13.1956620974       14.3640364964       32.4803002624  TIP3      643             0.0000000000
     10506       708  TIP3      OH2           -11.0722370183       12.5054278888       32.8204276778  TIP3      644             0.0000000000
     10507       708  TIP3      H1            -11.8858266479       12.8257903108       32.3924179029  TIP3      644             0.0000000000
     10508       708  TIP3      H2            -10.5315054628       13.3069293541       32.7209401361  TIP3      644             0.0000000000
     10509       709  TIP3      OH2            -8.4960193114       14.0736078038       32.9632801666  TIP3      645             0.0000000000
     10510       709  TIP3      H1             -8.4784790264       15.0395976138       32.7523099277  TIP3      645             0.0000000000
     10511       709  TIP3      H2             -8.2433866245       13.7027931016       32.0924666714  TIP3      645             0.0000000000
     10512       710  TIP3      OH2           -21.0384386008       12.8798764572       30.3777717964  TIP3      646             0.0000000000
     10513       710  TIP3      H1            -21.0767654715       12.4686218619       31.2587688951  TIP3      646             0.0000000000
     10514       710  TIP3      H2            -20.2103017461       12.5177361940       30.0111094377  TIP3      646             0.0000000000
     10515       711  TIP3      OH2           -18.9722254781       11.6025877481       29.0781403268  TIP3      647             0.0000000000
     10516       711  TIP3      H1            -19.1062770975       10.6711222451       29.3353267878  TIP3      647             0.0000000000
     10517       711  TIP3      H2            -18.1260333778       11.7946326553       29.5303079344  TIP3      647             0.0000000000
     10518       712  TIP3      OH2           -16.3454343507       12.0909634421       30.0034431749  TIP3      648             0.0000000000
     10519       712  TIP3      H1            -16.2047703114       11.1688430512       29.7269023321  TIP3      648             0.0000000000
     10520       712  TIP3      H2            -16.3226998027       12.0066377711       30.9690129764  TIP3      648             0.0000000000
     10521       713  TIP3      OH2           -12.9277700945       -2.2398611637       29.0324405732  TIP3      649             0.0000000000
     10522       713  TIP3      H1            -13.5698647527       -2.8668468090       29.4145989665  TIP3      649             0.0000000000
     10523       713  TIP3      H2            -12.3334204841       -2.8197644288       28.5475501309  TIP3      649             0.0000000000
     10524       714  TIP3      OH2            -7.7628698732       -4.2412139065       29.1205365740  TIP3      650             0.0000000000
     10525       714  TIP3      H1             -7.1760822636       -3.6138745671       28.6257172365  TIP3      650             0.0000000000
     10526       714  TIP3      H2             -8.6541601542       -3.8640398679       28.9458600885  TIP3      650             0.0000000000
     10527       715  TIP3      OH2            -6.1140700866       -2.9279555016       27.4315472181  TIP3      651             0.0000000000
     10528       715  TIP3      H1             -5.4293867545       -3.5304561479       27.0506657105  TIP3      651             0.0000000000
     10529       715  TIP3      H2             -5.5830981891       -2.1112850568       27.5763846421  TIP3      651             0.0000000000
     10530       716  TIP3      OH2           -20.5244417512       -3.6846091602       27.0170420412  TIP3      652             0.0000000000
     10531       716  TIP3      H1            -21.2969068154       -3.7917295047       26.4336668262  TIP3      652             0.0000000000
     10532       716  TIP3      H2            -20.0469795318       -4.5236310231       26.8554974504  TIP3      652             0.0000000000
     10533       717  TIP3      OH2           -21.8688766971       -3.8407757692       22.6068970017  TIP3      653             0.0000000000
     10534       717  TIP3      H1            -21.2290212388       -3.2532550217       22.1732681922  TIP3      653             0.0000000000
     10535       717  TIP3      H2            -22.2517586622       -3.2935772248       23.3047233891  TIP3      653             0.0000000000
     10536       718  TIP3      OH2           -16.0213140104       -3.7620137297       26.7159587412  TIP3      654             0.0000000000
     10537       718  TIP3      H1            -15.1684800181       -3.3145161553       26.6776242615  TIP3      654             0.0000000000
     10538       718  TIP3      H2            -16.0948731390       -3.9199969219       27.6599813409  TIP3      654             0.0000000000
     10539       719  TIP3      OH2           -10.3398810962       -3.6842288570       28.3486950316  TIP3      655             0.0000000000
     10540       719  TIP3      H1            -10.4056897864       -3.5740003892       27.3927451252  TIP3      655             0.0000000000
     10541       719  TIP3      H2            -10.7145731486       -4.5888491845       28.4888137069  TIP3      655             0.0000000000
     10542       720  TIP3      OH2            -9.1328779492       -3.6724005065       23.9557857136  TIP3      656             0.0000000000
     10543       720  TIP3      H1             -9.8578177476       -3.0491832915       23.9872120255  TIP3      656             0.0000000000
     10544       720  TIP3      H2             -9.5002067657       -4.5167849399       24.3223732351  TIP3      656             0.0000000000
     10545       721  TIP3      OH2           -21.8409655821       12.0906935273       23.5921122316  TIP3      657             0.0000000000
     10546       721  TIP3      H1            -22.5859903800       12.0717729455       22.9782151805  TIP3      657             0.0000000000
     10547       721  TIP3      H2            -21.7961956224       13.0418453224       23.7775829043  TIP3      657             0.0000000000
     10548       722  TIP3      OH2           -14.8899143592       -1.7330627432       23.5761488781  TIP3      658             0.0000000000
     10549       722  TIP3      H1            -14.7024991628       -2.2536889682       24.3706009380  TIP3      658             0.0000000000
     10550       722  TIP3      H2            -14.8367960877       -0.8428996861       23.9847430418  TIP3      658             0.0000000000
     10551       723  TIP3      OH2           -12.9978713683       13.4809808780       22.0200923117  TIP3      659             0.0000000000
     10552       723  TIP3      H1            -12.0287190156       13.5716939570       21.8606617623  TIP3      659             0.0000000000
     10553       723  TIP3      H2            -13.1930525944       12.8558864665       21.2784975687  TIP3      659             0.0000000000
     10554       724  TIP3      OH2            -6.2940124173       12.9320237687       24.7090417681  TIP3      660             0.0000000000
     10555       724  TIP3      H1             -6.5162318798       12.1218245603       24.1907541833  TIP3      660             0.0000000000
     10556       724  TIP3      H2             -6.3748467115       13.6410260709       24.0508580687  TIP3      660             0.0000000000
     10557       725  TIP3      OH2           -20.7197235037       -3.0336499652       36.5977600747  TIP3      661             0.0000000000
     10558       725  TIP3      H1            -21.0855659105       -3.9334389200       36.6985637023  TIP3      661             0.0000000000
     10559       725  TIP3      H2            -19.7541480353       -3.1907130899       36.6827328170  TIP3      661             0.0000000000
     10560       726  TIP3      OH2           -18.4506650279       -3.8210869051       37.8988962619  TIP3      662             0.0000000000
     10561       726  TIP3      H1            -17.5224410003       -4.0644151178       37.7265544065  TIP3      662             0.0000000000
     10562       726  TIP3      H2            -18.7634101614       -4.6929779587       38.1764055917  TIP3      662             0.0000000000
     10563       727  TIP3      OH2           -10.2593343932       -4.4159216192       38.2286132136  TIP3      663             0.0000000000
     10564       727  TIP3      H1            -10.1740260298       -4.9009253558       39.0736875520  TIP3      663             0.0000000000
     10565       727  TIP3      H2             -9.3448203790       -4.4670650501       37.8782482665  TIP3      663             0.0000000000
     10566       728  TIP3      OH2            -7.0424733510       11.6477102927       36.8165856104  TIP3      664             0.0000000000
     10567       728  TIP3      H1             -7.8385415470       11.5223794484       36.2553433004  TIP3      664             0.0000000000
     10568       728  TIP3      H2             -7.1646965205       12.5914032350       37.0399351225  TIP3      664             0.0000000000
     10569       729  TIP3      OH2             7.4229494775        5.5297525708       26.7720643825  TIP3      665             0.0000000000
     10570       729  TIP3      H1              7.3813425825        6.5101216340       26.7964371811  TIP3      665             0.0000000000
     10571       729  TIP3      H2              6.6613556659        5.3122605951       26.2229782727  TIP3      665             0.0000000000
     10572       730  TIP3      OH2             6.2561461903        4.7518589993       30.2705549916  TIP3      666             0.0000000000
     10573       730  TIP3      H1              6.2747897646        4.1377811429       31.0290714350  TIP3      666             0.0000000000
     10574       730  TIP3      H2              5.8717509183        4.1920802718       29.5733129298  TIP3      666             0.0000000000
     10575       731  TIP3      OH2            -1.4062086293        4.4517922022       31.8619671218  TIP3      667             0.0000000000
     10576       731  TIP3      H1             -1.3164789355        3.7530594393       32.5387588477  TIP3      667             0.0000000000
     10577       731  TIP3      H2             -0.6472182880        5.0135628834       32.0898979498  TIP3      667             0.0000000000
     10578       732  TIP3      OH2             9.9094625402        7.7162375013       28.6138996489  TIP3      668             0.0000000000
     10579       732  TIP3      H1              9.5316760661        6.9895193196       29.1169331422  TIP3      668             0.0000000000
     10580       732  TIP3      H2              9.9695382981        8.4150325242       29.2902679254  TIP3      668             0.0000000000
     10581       733  TIP3      OH2            -0.4764874284        8.9190156728       30.3042672185  TIP3      669             0.0000000000
     10582       733  TIP3      H1             -0.7707856467        8.0281847514       30.0285365845  TIP3      669             0.0000000000
     10583       733  TIP3      H2              0.4792818939        8.7423464571       30.3698764750  TIP3      669             0.0000000000
     10584       734  TIP3      OH2            -3.8255928221        2.4739153171       25.8595297246  TIP3      670             0.0000000000
     10585       734  TIP3      H1             -4.2786946393        3.3301963150       25.8120940312  TIP3      670             0.0000000000
     10586       734  TIP3      H2             -4.3852502610        1.9174685351       25.3061028209  TIP3      670             0.0000000000
     10587       735  TIP3      OH2            -3.1011178620        4.6709840730       28.0459493916  TIP3      671             0.0000000000
     10588       735  TIP3      H1             -2.8185956801        3.8284450693       28.4656710914  TIP3      671             0.0000000000
     10589       735  TIP3      H2             -2.4350443416        4.7829852495       27.3538786006  TIP3      671             0.0000000000
     10590       736  TIP3      OH2             7.0721576132       12.9048991278       28.8463702360  TIP3      672             0.0000000000
     10591       736  TIP3      H1              7.7056754094       12.2187301130       28.5247904351  TIP3      672             0.0000000000
     10592       736  TIP3      H2              6.8179710586       12.5051741037       29.6827151752  TIP3      672             0.0000000000
     10593       737  TIP3      OH2             4.6348046465        7.1642554085       30.8112767859  TIP3      673             0.0000000000
     10594       737  TIP3      H1              4.9559096249        6.5412898322       30.1396257298  TIP3      673             0.0000000000
     10595       737  TIP3      H2              5.4639390424        7.3213805993       31.3005698060  TIP3      673             0.0000000000
     10596       738  TIP3      OH2            13.3547734919       -1.2216986025       31.4923606702  TIP3      674             0.0000000000
     10597       738  TIP3      H1             13.3644758715       -0.6145139759       32.2655172897  TIP3      674             0.0000000000
     10598       738  TIP3      H2             13.8469260419       -0.7044829316       30.8505927025  TIP3      674             0.0000000000
     10599       739  TIP3      OH2             7.7896835556        1.6847058781       31.1245324387  TIP3      675             0.0000000000
     10600       739  TIP3      H1              7.9721535218        0.7105364555       31.1624644280  TIP3      675             0.0000000000
     10601       739  TIP3      H2              7.7049834396        1.7421568820       30.1576368289  TIP3      675             0.0000000000
     10602       740  TIP3      OH2             0.8925845751       -0.2745254852       28.3022297362  TIP3      676             0.0000000000
     10603       740  TIP3      H1              1.0337454653        0.5490742017       27.7904185936  TIP3      676             0.0000000000
     10604       740  TIP3      H2              0.5180326374       -0.8539059260       27.6046608729  TIP3      676             0.0000000000
     10605       741  TIP3      OH2             8.6339919238       -0.1929364637       26.6386550122  TIP3      677             0.0000000000
     10606       741  TIP3      H1              9.2332581073       -0.5261371073       27.3521891230  TIP3      677             0.0000000000
     10607       741  TIP3      H2              9.2221963426        0.4246132371       26.1869609129  TIP3      677             0.0000000000
     10608       742  TIP3      OH2            -2.4833681762        2.1444787684       29.0333465509  TIP3      678             0.0000000000
     10609       742  TIP3      H1             -1.8164215048        1.6187082425       29.5114368043  TIP3      678             0.0000000000
     10610       742  TIP3      H2             -2.3456486191        1.8195401947       28.1292240470  TIP3      678             0.0000000000
     10611       743  TIP3      OH2             2.6728532990        3.6941567699       28.4140725063  TIP3      679             0.0000000000
     10612       743  TIP3      H1              3.3693545910        3.1086527837       28.7621209425  TIP3      679             0.0000000000
     10613       743  TIP3      H2              2.1906097367        3.0616909912       27.8431548392  TIP3      679             0.0000000000
     10614       744  TIP3      OH2            13.7162469427        0.2702318989       33.8008969699  TIP3      680             0.0000000000
     10615       744  TIP3      H1             13.0205002000        0.9408452120       33.6142211663  TIP3      680             0.0000000000
     10616       744  TIP3      H2             13.6645300999        0.2008449389       34.7637331323  TIP3      680             0.0000000000
     10617       745  TIP3      OH2            -0.1519526276       -1.3667960611       32.3566333362  TIP3      681             0.0000000000
     10618       745  TIP3      H1             -0.4458510934       -0.7973477224       31.6082118862  TIP3      681             0.0000000000
     10619       745  TIP3      H2             -0.8294779345       -1.1449124836       33.0372443789  TIP3      681             0.0000000000
     10620       746  TIP3      OH2             7.1034287860        8.0840644146       25.9103248988  TIP3      682             0.0000000000
     10621       746  TIP3      H1              6.7676775290        7.8406610994       25.0387817431  TIP3      682             0.0000000000
     10622       746  TIP3      H2              6.8131842453        9.0201091101       25.9957051137  TIP3      682             0.0000000000
     10623       747  TIP3      OH2             2.3225455756        6.2758754638       32.5564490943  TIP3      683             0.0000000000
     10624       747  TIP3      H1              1.6343311824        6.9219876678       32.8220603862  TIP3      683             0.0000000000
     10625       747  TIP3      H2              3.0379002385        6.8657835886       32.2683541424  TIP3      683             0.0000000000
     10626       748  TIP3      OH2            10.4720933091       -0.8550323380       28.7057445020  TIP3      684             0.0000000000
     10627       748  TIP3      H1             10.2170579427       -1.6250301801       29.2407499700  TIP3      684             0.0000000000
     10628       748  TIP3      H2             11.1196892725       -0.4277883913       29.2937812707  TIP3      684             0.0000000000
     10629       749  TIP3      OH2            -0.5747274182        0.4616235964       30.4069313108  TIP3      685             0.0000000000
     10630       749  TIP3      H1              0.0382261016        1.1723018564       30.7014902256  TIP3      685             0.0000000000
     10631       749  TIP3      H2             -0.0820053563        0.0891554782       29.6301640550  TIP3      685             0.0000000000
     10632       750  TIP3      OH2             0.7936242974        8.2925634604       33.3982944850  TIP3      686             0.0000000000
     10633       750  TIP3      H1              0.7312599800        9.2084799642       33.0728956654  TIP3      686             0.0000000000
     10634       750  TIP3      H2             -0.0881794115        8.1959852480       33.8396358392  TIP3      686             0.0000000000
     10635       751  TIP3      OH2            10.4569639472        9.5629229186       30.9587912500  TIP3      687             0.0000000000
     10636       751  TIP3      H1              9.4891146941        9.6880340847       31.0812383474  TIP3      687             0.0000000000
     10637       751  TIP3      H2             10.7281092765       10.4712077044       30.7346062475  TIP3      687             0.0000000000
     10638       752  TIP3      OH2            10.9682519640       -1.2487456798       32.7401857366  TIP3      688             0.0000000000
     10639       752  TIP3      H1             10.1330953850       -1.6138565157       32.4054787460  TIP3      688             0.0000000000
     10640       752  TIP3      H2             11.5214238073       -1.6474702719       32.0333825245  TIP3      688             0.0000000000
     10641       753  TIP3      OH2             3.7197367782       -4.0366109789       29.7981063773  TIP3      689             0.0000000000
     10642       753  TIP3      H1              3.5501191670       -4.9966711013       29.7187765908  TIP3      689             0.0000000000
     10643       753  TIP3      H2              2.8529388029       -3.7208730583       30.1336682059  TIP3      689             0.0000000000
     10644       754  TIP3      OH2             8.7207447669       11.3614706545       27.5340559420  TIP3      690             0.0000000000
     10645       754  TIP3      H1              9.1704535241       10.6267926389       27.0717871940  TIP3      690             0.0000000000
     10646       754  TIP3      H2              9.2360171454       12.1260374632       27.1961570757  TIP3      690             0.0000000000
     10647       755  TIP3      OH2             9.9675076699        9.2793882647       26.0573608853  TIP3      691             0.0000000000
     10648       755  TIP3      H1              9.6669752583        8.5717994069       25.4640502025  TIP3      691             0.0000000000
     10649       755  TIP3      H2              9.9946537401        8.7933788317       26.9001218460  TIP3      691             0.0000000000
     10650       756  TIP3      OH2            11.5297095749        7.8868044538       34.5606398034  TIP3      692             0.0000000000
     10651       756  TIP3      H1             11.6983661936        7.1981474380       33.8773477303  TIP3      692             0.0000000000
     10652       756  TIP3      H2             11.7658031893        8.7042027131       34.0832071811  TIP3      692             0.0000000000
     10653       757  TIP3      OH2             6.0249872793        4.6731701802       24.2062622408  TIP3      693             0.0000000000
     10654       757  TIP3      H1              5.3475954722        5.3591297670       24.0126319520  TIP3      693             0.0000000000
     10655       757  TIP3      H2              6.7831535263        4.9913230288       23.7108705471  TIP3      693             0.0000000000
     10656       758  TIP3      OH2            13.4570792027        4.2085851145       32.5669451813  TIP3      694             0.0000000000
     10657       758  TIP3      H1             12.8116456142        4.9413285264       32.6030560669  TIP3      694             0.0000000000
     10658       758  TIP3      H2             13.9740430269        4.4561627671       31.7738930966  TIP3      694             0.0000000000
     10659       759  TIP3      OH2             9.4965030124        4.9123799788       25.2208286870  TIP3      695             0.0000000000
     10660       759  TIP3      H1              8.8051663924        5.2042892672       25.8596170996  TIP3      695             0.0000000000
     10661       759  TIP3      H2             10.0281498328        4.3313230189       25.7941275628  TIP3      695             0.0000000000
     10662       760  TIP3      OH2             9.4402185388        3.1374131014       34.2972429949  TIP3      696             0.0000000000
     10663       760  TIP3      H1              9.4347860271        3.9191399122       34.8722244826  TIP3      696             0.0000000000
     10664       760  TIP3      H2              8.7876869913        3.4200909821       33.6328060593  TIP3      696             0.0000000000
     10665       761  TIP3      OH2             1.1213711318        5.6175601456       27.1640183903  TIP3      697             0.0000000000
     10666       761  TIP3      H1              0.8068308901        5.2202858531       26.3149607976  TIP3      697             0.0000000000
     10667       761  TIP3      H2              1.7393736721        4.9291167186       27.5015873396  TIP3      697             0.0000000000
     10668       762  TIP3      OH2             2.4227784234        8.9741487889       29.8400329355  TIP3      698             0.0000000000
     10669       762  TIP3      H1              2.4390214451        8.4845977803       29.0085531087  TIP3      698             0.0000000000
     10670       762  TIP3      H2              3.2237890633        8.6386150492       30.2883757732  TIP3      698             0.0000000000
     10671       763  TIP3      OH2             1.4302386235        4.3619627212       30.8494766464  TIP3      699             0.0000000000
     10672       763  TIP3      H1              1.9587887907        4.4406713973       30.0277941842  TIP3      699             0.0000000000
     10673       763  TIP3      H2              1.8519668742        5.0322575837       31.4335564542  TIP3      699             0.0000000000
     10674       764  TIP3      OH2             7.8914053707        9.9597222037       31.5537366892  TIP3      700             0.0000000000
     10675       764  TIP3      H1              7.6043098332       10.5922807324       32.2247949911  TIP3      700             0.0000000000
     10676       764  TIP3      H2              7.6348592113        9.1004677145       31.9589094829  TIP3      700             0.0000000000
     10677       765  TIP3      OH2             2.4025702328        8.8068241865       35.5284620389  TIP3      701             0.0000000000
     10678       765  TIP3      H1              1.9472695118        9.5162542129       36.0286189937  TIP3      701             0.0000000000
     10679       765  TIP3      H2              1.7504517691        8.5886900980       34.8212398617  TIP3      701             0.0000000000
     10680       766  TIP3      OH2            -0.6354364784        4.9589603501       34.6314630130  TIP3      702             0.0000000000
     10681       766  TIP3      H1             -0.5677105011        5.6126343881       35.3508198686  TIP3      702             0.0000000000
     10682       766  TIP3      H2             -1.5929963519        5.0091322735       34.4802835831  TIP3      702             0.0000000000
     10683       767  TIP3      OH2             6.1185790626       10.9090077258       26.3271503448  TIP3      703             0.0000000000
     10684       767  TIP3      H1              6.5172498361       11.1804110750       27.1700123741  TIP3      703             0.0000000000
     10685       767  TIP3      H2              5.5281228693       11.6489092805       26.1420047521  TIP3      703             0.0000000000
     10686       768  TIP3      OH2             0.6628876294       10.8134181818       36.2605100095  TIP3      704             0.0000000000
     10687       768  TIP3      H1              0.5706971776       10.7432528063       35.2922920969  TIP3      704             0.0000000000
     10688       768  TIP3      H2             -0.2583045857       10.6691355101       36.5510318907  TIP3      704             0.0000000000
     10689       769  TIP3      OH2            12.1395516591       -4.1219695905       22.8665209240  TIP3      705             0.0000000000
     10690       769  TIP3      H1             11.1789924912       -4.0506717176       23.0437995871  TIP3      705             0.0000000000
     10691       769  TIP3      H2             12.2957727054       -3.3026576771       22.3876954934  TIP3      705             0.0000000000
     10692       770  TIP3      OH2             0.0536109381        4.6253253676       24.8154348815  TIP3      706             0.0000000000
     10693       770  TIP3      H1             -0.2108608703        5.3901383349       24.2607983149  TIP3      706             0.0000000000
     10694       770  TIP3      H2             -0.5752265797        3.9453336759       24.5396718815  TIP3      706             0.0000000000
     10695       771  TIP3      OH2            -3.8272750278        7.0754025527       33.7108753053  TIP3      707             0.0000000000
     10696       771  TIP3      H1             -4.2648460887        6.9899703010       32.8443559006  TIP3      707             0.0000000000
     10697       771  TIP3      H2             -3.7137847544        6.1255114781       33.9207927539  TIP3      707             0.0000000000
     10698       772  TIP3      OH2            -4.0807623022        9.8133969360       30.4768742845  TIP3      708             0.0000000000
     10699       772  TIP3      H1             -3.1236062213        9.6896311914       30.4277720544  TIP3      708             0.0000000000
     10700       772  TIP3      H2             -4.1410041547       10.6482558826       30.9542585333  TIP3      708             0.0000000000
     10701       773  TIP3      OH2            14.1776740622       10.5215038303       36.1739645219  TIP3      709             0.0000000000
     10702       773  TIP3      H1             14.0451399015        9.5631999780       36.1217118360  TIP3      709             0.0000000000
     10703       773  TIP3      H2             13.2942595966       10.7748891724       36.5312199341  TIP3      709             0.0000000000
     10704       774  TIP3      OH2             5.1284539743       10.0421250217       35.0146212023  TIP3      710             0.0000000000
     10705       774  TIP3      H1              5.1799170165       10.8853592979       35.5227697053  TIP3      710             0.0000000000
     10706       774  TIP3      H2              4.2577495520        9.6740401426       35.2598095642  TIP3      710             0.0000000000
     10707       775  TIP3      OH2             5.6092717186       13.7761778272       24.7446685973  TIP3      711             0.0000000000
     10708       775  TIP3      H1              5.4063601437       13.8137814212       23.8176498601  TIP3      711             0.0000000000
     10709       775  TIP3      H2              5.5914041798       14.7119949023       25.0361934927  TIP3      711             0.0000000000
     10710       776  TIP3      OH2            -0.7816573396       12.6676872843       26.6687010768  TIP3      712             0.0000000000
     10711       776  TIP3      H1             -0.6191186442       12.2390382973       27.5371908992  TIP3      712             0.0000000000
     10712       776  TIP3      H2             -1.6344450975       12.2632041508       26.4470367431  TIP3      712             0.0000000000
     10713       777  TIP3      OH2             8.2901735154       12.9634969366       24.5659869744  TIP3      713             0.0000000000
     10714       777  TIP3      H1              7.3473100561       13.0392864311       24.7978333976  TIP3      713             0.0000000000
     10715       777  TIP3      H2              8.5739244805       12.2185707816       25.1165949247  TIP3      713             0.0000000000
     10716       778  TIP3      OH2            10.7339661785        2.1793283188       36.5991445323  TIP3      714             0.0000000000
     10717       778  TIP3      H1             10.7500698501        2.5070746135       35.6977266064  TIP3      714             0.0000000000
     10718       778  TIP3      H2             11.2529161379        1.3411295423       36.5233766266  TIP3      714             0.0000000000
     10719       779  TIP3      OH2            -1.5201890465        8.3808346756       34.6249941571  TIP3      715             0.0000000000
     10720       779  TIP3      H1             -1.3150513018        8.0349769650       35.5196684504  TIP3      715             0.0000000000
     10721       779  TIP3      H2             -2.3970806246        7.9969557122       34.4156412889  TIP3      715             0.0000000000
     10722       780  TIP3      OH2             1.1615027976       -3.1216558962       30.5545664759  TIP3      716             0.0000000000
     10723       780  TIP3      H1              0.2592574849       -3.2717472866       30.1960510496  TIP3      716             0.0000000000
     10724       780  TIP3      H2              1.0014793481       -2.3132121982       31.0681570640  TIP3      716             0.0000000000
     10725       781  TIP3      OH2             5.8012228987       -3.4976245276       33.9132335973  TIP3      717             0.0000000000
     10726       781  TIP3      H1              6.1995524136       -3.9133754220       34.6988569848  TIP3      717             0.0000000000
     10727       781  TIP3      H2              4.8301274916       -3.5794740468       34.0693566929  TIP3      717             0.0000000000
     10728       782  TIP3      OH2             8.9713520766        0.3945249027       34.7421749178  TIP3      718             0.0000000000
     10729       782  TIP3      H1              8.5345265322        0.1809874055       35.5999475411  TIP3      718             0.0000000000
     10730       782  TIP3      H2              8.9414984753        1.3547439854       34.6372650340  TIP3      718             0.0000000000
     10731       783  TIP3      OH2             5.5051156573       -0.9525262716       21.4182469752  TIP3      719             0.0000000000
     10732       783  TIP3      H1              5.0661387036       -1.0187685440       22.2875755327  TIP3      719             0.0000000000
     10733       783  TIP3      H2              5.1659279279       -1.7494974409       20.9809040028  TIP3      719             0.0000000000
     10734       784  TIP3      OH2             1.2450955964        1.8569072605       31.8487637234  TIP3      720             0.0000000000
     10735       784  TIP3      H1              0.5104509360        1.8661624589       32.4866869104  TIP3      720             0.0000000000
     10736       784  TIP3      H2              1.2023320991        2.7565706855       31.4524823296  TIP3      720             0.0000000000
     10737       785  TIP3      OH2             1.2030176140        1.9223721442       26.7240767161  TIP3      721             0.0000000000
     10738       785  TIP3      H1              0.2610921607        1.7106721176       26.5683375033  TIP3      721             0.0000000000
     10739       785  TIP3      H2              1.5830738569        1.6674945801       25.8592029102  TIP3      721             0.0000000000
     10740       786  TIP3      OH2             6.6993730368        2.4223959425       25.4049832485  TIP3      722             0.0000000000
     10741       786  TIP3      H1              6.3587667214        3.2911815028       25.1055467773  TIP3      722             0.0000000000
     10742       786  TIP3      H2              7.4487218157        2.2678443459       24.8093453264  TIP3      722             0.0000000000
     10743       787  TIP3      OH2             5.7873688711        2.6773393726       36.8907852536  TIP3      723             0.0000000000
     10744       787  TIP3      H1              5.2942279475        1.8754744161       37.1843585802  TIP3      723             0.0000000000
     10745       787  TIP3      H2              6.6348194010        2.5682949447       37.3586311969  TIP3      723             0.0000000000
     10746       788  TIP3      OH2             7.7995913670        1.9768663519       28.3145785316  TIP3      724             0.0000000000
     10747       788  TIP3      H1              7.4804464495        2.5198119527       27.5764108636  TIP3      724             0.0000000000
     10748       788  TIP3      H2              7.8512776251        1.0989121660       27.8933445345  TIP3      724             0.0000000000
     10749       789  TIP3      OH2            -1.1427137476        2.0550483983       33.4702058064  TIP3      725             0.0000000000
     10750       789  TIP3      H1             -1.0002712437        2.4720065765       34.3370886214  TIP3      725             0.0000000000
     10751       789  TIP3      H2             -1.5597888642        1.2157535042       33.7236000038  TIP3      725             0.0000000000
     10752       790  TIP3      OH2            -4.4622083372       -0.8371072395       27.5334594516  TIP3      726             0.0000000000
     10753       790  TIP3      H1             -3.7674377946       -0.8769092404       28.2237691035  TIP3      726             0.0000000000
     10754       790  TIP3      H2             -4.0121169783       -1.1702550298       26.7382984979  TIP3      726             0.0000000000
     10755       791  TIP3      OH2            -3.1669966551       -0.0055386523       22.9249297429  TIP3      727             0.0000000000
     10756       791  TIP3      H1             -2.6795229538        0.4949557378       22.2479352609  TIP3      727             0.0000000000
     10757       791  TIP3      H2             -3.8701939573        0.6343647430       23.1373711065  TIP3      727             0.0000000000
     10758       792  TIP3      OH2             6.9255109439        3.5308412948       32.8153265798  TIP3      728             0.0000000000
     10759       792  TIP3      H1              7.3485037634        2.8240636801       32.2712438994  TIP3      728             0.0000000000
     10760       792  TIP3      H2              6.4642361790        3.0092920239       33.4962767965  TIP3      728             0.0000000000
     10761       793  TIP3      OH2             3.7825489619       -0.4579868220       27.6988881830  TIP3      729             0.0000000000
     10762       793  TIP3      H1              2.8520656977       -0.4906622362       27.9828804137  TIP3      729             0.0000000000
     10763       793  TIP3      H2              4.2528007576       -0.6894395990       28.5132146701  TIP3      729             0.0000000000
     10764       794  TIP3      OH2            -1.4336031068        1.0544078757       26.5401348912  TIP3      730             0.0000000000
     10765       794  TIP3      H1             -2.3102118513        1.2202344841       26.1302966590  TIP3      730             0.0000000000
     10766       794  TIP3      H2             -1.1463577766        0.2216819361       26.1161955813  TIP3      730             0.0000000000
     10767       795  TIP3      OH2             2.1924286596        1.1676381754       24.2584882544  TIP3      731             0.0000000000
     10768       795  TIP3      H1              3.1656502744        1.2205339640       24.3305803873  TIP3      731             0.0000000000
     10769       795  TIP3      H2              1.9419905003        1.7501191536       23.5163539737  TIP3      731             0.0000000000
     10770       796  TIP3      OH2             7.9132122577       -0.8779812636       30.8163547111  TIP3      732             0.0000000000
     10771       796  TIP3      H1              7.4739685990       -1.2220486814       31.6141662666  TIP3      732             0.0000000000
     10772       796  TIP3      H2              7.7510597579       -1.5808599496       30.1730727009  TIP3      732             0.0000000000
     10773       797  TIP3      OH2             0.9998557524        2.3615389498       21.7593396716  TIP3      733             0.0000000000
     10774       797  TIP3      H1              0.3323240415        1.9839013175       21.1353496417  TIP3      733             0.0000000000
     10775       797  TIP3      H2              1.7444703491        2.3920622259       21.1644768432  TIP3      733             0.0000000000
     10776       798  TIP3      OH2            11.3481465625       14.3918593277       37.2642677750  TIP3      734             0.0000000000
     10777       798  TIP3      H1             11.6231287442       14.7569058939       36.4029937199  TIP3      734             0.0000000000
     10778       798  TIP3      H2             12.0780988718       14.7040291850       37.8196167351  TIP3      734             0.0000000000
     10779       799  TIP3      OH2            -0.9664131653        6.8612500409       36.8443260813  TIP3      735             0.0000000000
     10780       799  TIP3      H1             -0.2341176335        7.1029274623       37.4376593237  TIP3      735             0.0000000000
     10781       799  TIP3      H2             -1.7264784138        6.8927187017       37.4637756071  TIP3      735             0.0000000000
     10782       800  TIP3      OH2             5.0324654205        2.2754729589       29.5810160900  TIP3      736             0.0000000000
     10783       800  TIP3      H1              5.6524566382        1.7540364919       29.0586927490  TIP3      736             0.0000000000
     10784       800  TIP3      H2              4.8945798930        1.7182554968       30.3590340805  TIP3      736             0.0000000000
     10785       801  TIP3      OH2             0.0416022816       -1.5818461305       26.0489444675  TIP3      737             0.0000000000
     10786       801  TIP3      H1             -0.3043805809       -2.4903833820       26.0646916349  TIP3      737             0.0000000000
     10787       801  TIP3      H2              0.8213104059       -1.6855371688       25.4842544390  TIP3      737             0.0000000000
     10788       802  TIP3      OH2             3.6651574333        0.5726955785       32.0087665034  TIP3      738             0.0000000000
     10789       802  TIP3      H1              2.8598885010        1.1249723775       32.0746327431  TIP3      738             0.0000000000
     10790       802  TIP3      H2              4.2469179624        0.9530392306       32.6946678857  TIP3      738             0.0000000000
     10791       803  TIP3      OH2             4.3094585487        6.7566666585       23.7342192080  TIP3      739             0.0000000000
     10792       803  TIP3      H1              3.4757078946        6.3804463478       23.3805675148  TIP3      739             0.0000000000
     10793       803  TIP3      H2              4.0314037571        7.0192784457       24.6348141537  TIP3      739             0.0000000000
     10794       804  TIP3      OH2            11.4993004466        6.0531671776       32.5092700640  TIP3      740             0.0000000000
     10795       804  TIP3      H1             12.0264437384        6.5376581035       31.8451679750  TIP3      740             0.0000000000
     10796       804  TIP3      H2             10.6253546714        6.0340039463       32.0689667861  TIP3      740             0.0000000000
     10797       805  TIP3      OH2             8.1395450063       -0.2238378577       21.7053357595  TIP3      741             0.0000000000
     10798       805  TIP3      H1              7.1629690260       -0.3149415259       21.7225629444  TIP3      741             0.0000000000
     10799       805  TIP3      H2              8.3701373578        0.5034821820       22.3087797854  TIP3      741             0.0000000000
     10800       806  TIP3      OH2             5.7623364185        7.1199231496       34.9479001662  TIP3      742             0.0000000000
     10801       806  TIP3      H1              5.4190524911        6.6601483961       35.7215253700  TIP3      742             0.0000000000
     10802       806  TIP3      H2              5.4690962846        8.0261907652       35.0874415054  TIP3      742             0.0000000000
     10803       807  TIP3      OH2             8.8201200599        1.6186228250       23.5253393348  TIP3      743             0.0000000000
     10804       807  TIP3      H1              9.6776337110        1.4252024002       23.9720789620  TIP3      743             0.0000000000
     10805       807  TIP3      H2              9.0024221717        2.4326392873       23.0606032824  TIP3      743             0.0000000000
     10806       808  TIP3      OH2            -0.6014542572        6.2226530279       29.5132428548  TIP3      744             0.0000000000
     10807       808  TIP3      H1              0.0410152161        6.1216783450       28.7858806346  TIP3      744             0.0000000000
     10808       808  TIP3      H2             -0.5518475312        5.3668914872       29.9705147707  TIP3      744             0.0000000000
     10809       809  TIP3      OH2            -3.6309179624        4.6078279574       34.7578817434  TIP3      745             0.0000000000
     10810       809  TIP3      H1             -3.4855682883        4.1561481631       35.6122918399  TIP3      745             0.0000000000
     10811       809  TIP3      H2             -4.2566287195        4.0181850293       34.3011470551  TIP3      745             0.0000000000
     10812       810  TIP3      OH2             3.3898587438        4.1835390971       36.9145477416  TIP3      746             0.0000000000
     10813       810  TIP3      H1              3.0470586900        3.8238464622       36.0804053251  TIP3      746             0.0000000000
     10814       810  TIP3      H2              4.2994245724        3.8244943932       36.9135522494  TIP3      746             0.0000000000
     10815       811  TIP3      OH2             8.0971622561        9.5269542300       34.9193221754  TIP3      747             0.0000000000
     10816       811  TIP3      H1              7.1716924865        9.6877679253       34.6703158278  TIP3      747             0.0000000000
     10817       811  TIP3      H2              8.0436902565        9.8240506078       35.8491536771  TIP3      747             0.0000000000
     10818       812  TIP3      OH2            13.7043097385        1.7116540831       23.2882726261  TIP3      748             0.0000000000
     10819       812  TIP3      H1             13.1541906779        1.3980834920       22.5675183052  TIP3      748             0.0000000000
     10820       812  TIP3      H2             13.8134176698        2.6705138526       23.0559711422  TIP3      748             0.0000000000
     10821       813  TIP3      OH2            13.7262315902        7.5490984006       36.0651047009  TIP3      749             0.0000000000
     10822       813  TIP3      H1             12.8279896714        7.7750669718       35.7153760922  TIP3      749             0.0000000000
     10823       813  TIP3      H2             14.2550751970        7.4809305772       35.2401512437  TIP3      749             0.0000000000
     10824       814  TIP3      OH2            12.0872832727       10.4930157823       23.7245162128  TIP3      750             0.0000000000
     10825       814  TIP3      H1             11.6689423590        9.6834567257       24.0438561188  TIP3      750             0.0000000000
     10826       814  TIP3      H2             12.2607611579       10.3404110705       22.7935148872  TIP3      750             0.0000000000
     10827       815  TIP3      OH2             9.2516082539        5.3124909395       30.8023008425  TIP3      751             0.0000000000
     10828       815  TIP3      H1              8.3086593345        5.1444589788       30.6456422282  TIP3      751             0.0000000000
     10829       815  TIP3      H2              9.6673488658        4.5759268444       30.3127176427  TIP3      751             0.0000000000
     10830       816  TIP3      OH2             1.7446454279        9.6701105016       26.8496250222  TIP3      752             0.0000000000
     10831       816  TIP3      H1              2.2500829432       10.4816472155       26.6746593013  TIP3      752             0.0000000000
     10832       816  TIP3      H2              0.8619904570        9.9282491459       26.5583533313  TIP3      752             0.0000000000
     10833       817  TIP3      OH2            -2.4505474454        4.6288563034       21.3724419119  TIP3      753             0.0000000000
     10834       817  TIP3      H1             -1.8766306082        5.1959780771       21.8907977514  TIP3      753             0.0000000000
     10835       817  TIP3      H2             -3.3387209794        4.6863176310       21.7510975067  TIP3      753             0.0000000000
     10836       818  TIP3      OH2             3.1875910982        7.3609429948       26.3871290371  TIP3      754             0.0000000000
     10837       818  TIP3      H1              2.8160264844        8.2590801373       26.4940421471  TIP3      754             0.0000000000
     10838       818  TIP3      H2              2.4933323305        6.8265526709       26.8208009945  TIP3      754             0.0000000000
     10839       819  TIP3      OH2             3.6078564802       11.5326948561       32.8498346227  TIP3      755             0.0000000000
     10840       819  TIP3      H1              4.1034287852       12.3052879215       32.5369911346  TIP3      755             0.0000000000
     10841       819  TIP3      H2              4.2421123886       11.1633929900       33.4914683771  TIP3      755             0.0000000000
     10842       820  TIP3      OH2             1.8630671885       12.2964418406       25.9361354263  TIP3      756             0.0000000000
     10843       820  TIP3      H1              0.9019116689       12.4260225007       26.0957355811  TIP3      756             0.0000000000
     10844       820  TIP3      H2              2.2028280177       13.1529396543       26.2463287083  TIP3      756             0.0000000000
     10845       821  TIP3      OH2             7.0930205033        7.4968791283       32.4210099291  TIP3      757             0.0000000000
     10846       821  TIP3      H1              6.8246285955        7.3168631794       33.3470366095  TIP3      757             0.0000000000
     10847       821  TIP3      H2              7.7524836101        6.7994315935       32.2521786009  TIP3      757             0.0000000000
     10848       822  TIP3      OH2             9.9776449480       12.0947612379       34.9061302033  TIP3      758             0.0000000000
     10849       822  TIP3      H1              9.2641119991       11.6087892520       34.4531776943  TIP3      758             0.0000000000
     10850       822  TIP3      H2             10.1432448155       12.7915465074       34.2353880816  TIP3      758             0.0000000000
     10851       823  TIP3      OH2            -1.9722199162       -0.6538343414       34.3079489849  TIP3      759             0.0000000000
     10852       823  TIP3      H1             -2.8771161270       -0.2972171119       34.3011252922  TIP3      759             0.0000000000
     10853       823  TIP3      H2             -2.0810238489       -1.4950881572       34.7790959456  TIP3      759             0.0000000000
     10854       824  TIP3      OH2            10.2796421883        7.1624168430       23.7575721378  TIP3      760             0.0000000000
     10855       824  TIP3      H1             10.0265931837        6.3882036995       24.3036421597  TIP3      760             0.0000000000
     10856       824  TIP3      H2             11.2383188103        7.2110513731       23.9139157117  TIP3      760             0.0000000000
     10857       825  TIP3      OH2            -2.3702201242       11.1058345520       32.7247791089  TIP3      761             0.0000000000
     10858       825  TIP3      H1             -2.0197787866       10.2059108948       32.7357091289  TIP3      761             0.0000000000
     10859       825  TIP3      H2             -2.1087320940       11.4269256306       33.5938827597  TIP3      761             0.0000000000
     10860       826  TIP3      OH2             2.3874936529        9.1904444993       22.5167133574  TIP3      762             0.0000000000
     10861       826  TIP3      H1              2.6983755305        8.7257089764       23.2885453727  TIP3      762             0.0000000000
     10862       826  TIP3      H2              2.4384164383       10.1450223562       22.7398007375  TIP3      762             0.0000000000
     10863       827  TIP3      OH2            -1.0172244454        6.4293061681       23.0482634811  TIP3      763             0.0000000000
     10864       827  TIP3      H1             -1.7397507754        6.8571839281       23.5170749777  TIP3      763             0.0000000000
     10865       827  TIP3      H2             -0.4645891522        7.1660560042       22.7406099651  TIP3      763             0.0000000000
     10866       828  TIP3      OH2             6.7005865109       -0.8652751596       33.3711499558  TIP3      764             0.0000000000
     10867       828  TIP3      H1              7.5337781870       -0.8067237425       33.8630613227  TIP3      764             0.0000000000
     10868       828  TIP3      H2              6.4054927557       -1.7800340942       33.5261957661  TIP3      764             0.0000000000
     10869       829  TIP3      OH2             7.4492275585       -1.2229664220       24.3432833913  TIP3      765             0.0000000000
     10870       829  TIP3      H1              7.7662967241       -0.8392555966       23.5226002739  TIP3      765             0.0000000000
     10871       829  TIP3      H2              8.0489909343       -0.8615136315       25.0216318288  TIP3      765             0.0000000000
     10872       830  TIP3      OH2             4.7038321241        0.4568472335       25.1710111351  TIP3      766             0.0000000000
     10873       830  TIP3      H1              5.4934733300        1.0299637300       25.2524209549  TIP3      766             0.0000000000
     10874       830  TIP3      H2              4.4471047098        0.2675650278       26.1017903465  TIP3      766             0.0000000000
     10875       831  TIP3      OH2             5.3003585309        1.4670767537       34.3974206612  TIP3      767             0.0000000000
     10876       831  TIP3      H1              5.4306003245        2.0107477640       35.1970623183  TIP3      767             0.0000000000
     10877       831  TIP3      H2              5.9748483032        0.7647308321       34.4440553286  TIP3      767             0.0000000000
     10878       832  TIP3      OH2             5.6024536789       -2.4890352205       26.0774065090  TIP3      768             0.0000000000
     10879       832  TIP3      H1              5.2574696583       -1.8318208365       26.7028526163  TIP3      768             0.0000000000
     10880       832  TIP3      H2              6.2915541378       -1.9475715928       25.6232422303  TIP3      768             0.0000000000
     10881       833  TIP3      OH2             2.5521026638       11.9364320280       23.2258692341  TIP3      769             0.0000000000
     10882       833  TIP3      H1              2.7303868383       12.7415520760       22.6926301450  TIP3      769             0.0000000000
     10883       833  TIP3      H2              2.2866750031       12.2800003989       24.0984254128  TIP3      769             0.0000000000
     10884       834  TIP3      OH2             1.2490046869       -1.4362812437       22.8676419005  TIP3      770             0.0000000000
     10885       834  TIP3      H1              1.1676204240       -0.5047499359       23.1277306116  TIP3      770             0.0000000000
     10886       834  TIP3      H2              2.1716842452       -1.6443999384       23.0891246754  TIP3      770             0.0000000000
     10887       835  TIP3      OH2            11.4014042604       -0.7151752878       35.2296662928  TIP3      771             0.0000000000
     10888       835  TIP3      H1             10.5140844774       -0.3232088871       35.0969455395  TIP3      771             0.0000000000
     10889       835  TIP3      H2             11.6607087150       -0.7639481551       34.2821100267  TIP3      771             0.0000000000
     10890       836  TIP3      OH2            10.0882629077        3.1221356305       29.1960761321  TIP3      772             0.0000000000
     10891       836  TIP3      H1              9.2575455829        2.6591302776       28.9644184147  TIP3      772             0.0000000000
     10892       836  TIP3      H2             10.5781077950        2.4403441647       29.7139308375  TIP3      772             0.0000000000
     10893       837  TIP3      OH2            11.1451823347       12.4003575090       30.8766344831  TIP3      773             0.0000000000
     10894       837  TIP3      H1             11.0699143833       13.0750927245       30.1729069656  TIP3      773             0.0000000000
     10895       837  TIP3      H2             12.1084831513       12.4352242296       31.0564745977  TIP3      773             0.0000000000
     10896       838  TIP3      OH2            -1.3762511831       -3.4985869949       29.7403537352  TIP3      774             0.0000000000
     10897       838  TIP3      H1             -1.5372492494       -3.4932258918       28.7688772861  TIP3      774             0.0000000000
     10898       838  TIP3      H2             -1.7689192899       -4.3665199273       29.9726847934  TIP3      774             0.0000000000
     10899       839  TIP3      OH2            -2.4082267108       10.4512013056       25.8865995837  TIP3      775             0.0000000000
     10900       839  TIP3      H1             -3.2855729119       10.8422184919       25.8196104847  TIP3      775             0.0000000000
     10901       839  TIP3      H2             -1.9674977954       10.8748948034       25.1410098434  TIP3      775             0.0000000000
     10902       840  TIP3      OH2            -3.2488021243       13.0808711866       37.1214042055  TIP3      776             0.0000000000
     10903       840  TIP3      H1             -2.6242075360       12.9099121548       37.8524945370  TIP3      776             0.0000000000
     10904       840  TIP3      H2             -3.6089200580       12.1923607955       36.9523980286  TIP3      776             0.0000000000
     10905       841  TIP3      OH2             1.4768938602       12.0009271490       38.7249895544  TIP3      777             0.0000000000
     10906       841  TIP3      H1              2.2285421364       11.4959885456       39.0675889669  TIP3      777             0.0000000000
     10907       841  TIP3      H2              1.4441831433       11.7092015810       37.7921970919  TIP3      777             0.0000000000
     10908       842  TIP3      OH2             7.9382214059       10.3956765004       37.5084386998  TIP3      778             0.0000000000
     10909       842  TIP3      H1              7.6285434954        9.5074095801       37.7894164972  TIP3      778             0.0000000000
     10910       842  TIP3      H2              8.7249263364       10.5119025676       38.0768737659  TIP3      778             0.0000000000
     10911       843  TIP3      OH2            10.1733447019       11.3308415782       20.4334507209  TIP3      779             0.0000000000
     10912       843  TIP3      H1             10.4924700411       10.5142399032       20.8044498709  TIP3      779             0.0000000000
     10913       843  TIP3      H2             10.8133901062       11.4944253565       19.7048372068  TIP3      779             0.0000000000
     10914       844  TIP3      OH2            -3.3469640052        6.8358962157       38.1392942330  TIP3      780             0.0000000000
     10915       844  TIP3      H1             -3.1709736610        5.9248226222       37.8443248239  TIP3      780             0.0000000000
     10916       844  TIP3      H2             -4.0584997399        7.0982042117       37.5317794954  TIP3      780             0.0000000000
     10917       845  TIP3      OH2             1.0596867924        7.1213905364       20.1900493075  TIP3      781             0.0000000000
     10918       845  TIP3      H1              1.2104532633        6.3166308007       20.6816191680  TIP3      781             0.0000000000
     10919       845  TIP3      H2              1.7100177617        7.0956677287       19.4820279070  TIP3      781             0.0000000000
     10920       846  TIP3      OH2             3.3998061970        6.8483082753       37.5045551260  TIP3      782             0.0000000000
     10921       846  TIP3      H1              3.0738602258        7.1828639068       36.6463960905  TIP3      782             0.0000000000
     10922       846  TIP3      H2              3.4467800661        5.8680647756       37.3821441247  TIP3      782             0.0000000000
     10923       847  TIP3      OH2             9.0920345674        6.6670174030       34.9013063992  TIP3      783             0.0000000000
     10924       847  TIP3      H1              9.9020029350        7.2257151041       34.8915121210  TIP3      783             0.0000000000
     10925       847  TIP3      H2              8.4173529913        7.3616701570       34.9385998880  TIP3      783             0.0000000000
     10926       848  TIP3      OH2            -2.3673530249        4.0770806870       37.5200092735  TIP3      784             0.0000000000
     10927       848  TIP3      H1             -1.9360342228        3.2185866673       37.4444587740  TIP3      784             0.0000000000
     10928       848  TIP3      H2             -2.5899592208        4.0990682107       38.4642533131  TIP3      784             0.0000000000
     10929       849  TIP3      OH2             2.3096448287        5.1893789802       22.6154222677  TIP3      785             0.0000000000
     10930       849  TIP3      H1              1.7395913577        4.7057140060       23.2324776965  TIP3      785             0.0000000000
     10931       849  TIP3      H2              2.3882097507        4.5210351334       21.9339288360  TIP3      785             0.0000000000
     10932       850  TIP3      OH2             1.5018563276        3.0040563955       34.8414758056  TIP3      786             0.0000000000
     10933       850  TIP3      H1              0.9147326209        3.7343711874       35.0937824191  TIP3      786             0.0000000000
     10934       850  TIP3      H2              1.9328493057        3.3842393867       34.0562814678  TIP3      786             0.0000000000
     10935       851  TIP3      OH2             6.5870729385        5.6310982736       38.2491909571  TIP3      787             0.0000000000
     10936       851  TIP3      H1              7.5268858597        5.5701030603       38.0262994855  TIP3      787             0.0000000000
     10937       851  TIP3      H2              6.4343512739        4.8186161342       38.7589422407  TIP3      787             0.0000000000
     10938       852  TIP3      OH2             1.9279356117        0.3951770295       35.8814435227  TIP3      788             0.0000000000
     10939       852  TIP3      H1              2.0487472454       -0.3052175341       35.2107155092  TIP3      788             0.0000000000
     10940       852  TIP3      H2              1.8743681704        1.2125776699       35.3474201460  TIP3      788             0.0000000000
     10941       853  TIP3      OH2             2.3368476237       -1.2380016950       33.4672258940  TIP3      789             0.0000000000
     10942       853  TIP3      H1              2.8319802909       -0.7566292319       32.7631886441  TIP3      789             0.0000000000
     10943       853  TIP3      H2              1.4317011844       -1.2869642687       33.0858275605  TIP3      789             0.0000000000
     10944       854  TIP3      OH2             3.8540568660        4.3006480971       33.7124934582  TIP3      790             0.0000000000
     10945       854  TIP3      H1              4.6249639275        4.1198879978       33.1592589910  TIP3      790             0.0000000000
     10946       854  TIP3      H2              3.4844116657        5.1226462230       33.3460499481  TIP3      790             0.0000000000
     10947       855  TIP3      OH2             8.2542590410        2.0037255796       38.6692821759  TIP3      791             0.0000000000
     10948       855  TIP3      H1              8.5372608575        1.0865256743       38.5344406991  TIP3      791             0.0000000000
     10949       855  TIP3      H2              9.1164560202        2.4528891650       38.6546235175  TIP3      791             0.0000000000
     10950       856  TIP3      OH2             9.5829160943        4.8842787894       36.8829067304  TIP3      792             0.0000000000
     10951       856  TIP3      H1              9.3501760323        5.5606733545       36.2134522448  TIP3      792             0.0000000000
     10952       856  TIP3      H2             10.5362055617        4.7691046596       36.6812896967  TIP3      792             0.0000000000
     10953       857  TIP3      OH2             0.3881694760        1.6468447312       37.8257062091  TIP3      793             0.0000000000
     10954       857  TIP3      H1             -0.3831112128        1.0605452063       37.6797144569  TIP3      793             0.0000000000
     10955       857  TIP3      H2              1.0285713368        1.2733461370       37.1967059266  TIP3      793             0.0000000000
     10956       858  TIP3      OH2             3.1170492807       -3.7936385039       33.8290310642  TIP3      794             0.0000000000
     10957       858  TIP3      H1              2.9109860497       -2.8300515057       33.7512796498  TIP3      794             0.0000000000
     10958       858  TIP3      H2              2.3743582081       -4.1724199050       33.3282115484  TIP3      794             0.0000000000
     10959       859  TIP3      OH2             4.3881754379        0.5481747746       37.5113989824  TIP3      795             0.0000000000
     10960       859  TIP3      H1              4.0483892072        0.2976233491       38.3946072638  TIP3      795             0.0000000000
     10961       859  TIP3      H2              3.6253552812        0.3293400008       36.9467761631  TIP3      795             0.0000000000
     10962       860  TIP3      OH2             7.1177204108       -0.2991326053       36.6275570479  TIP3      796             0.0000000000
     10963       860  TIP3      H1              6.1509108701       -0.2621072941       36.7251220603  TIP3      796             0.0000000000
     10964       860  TIP3      H2              7.3973217052       -0.9506810165       37.3055649982  TIP3      796             0.0000000000
     10965       861  TIP3      OH2             8.5518751286       -1.7195395129       38.4420651009  TIP3      797             0.0000000000
     10966       861  TIP3      H1              8.6573858098       -2.6839626828       38.5277253032  TIP3      797             0.0000000000
     10967       861  TIP3      H2              8.4876818253       -1.3836039443       39.3607131072  TIP3      797             0.0000000000
     10968       862  TIP3      OH2            -1.5392764848       -0.3952182314       37.6137208794  TIP3      798             0.0000000000
     10969       862  TIP3      H1             -1.3224049415       -1.1474309074       37.0355775547  TIP3      798             0.0000000000
     10970       862  TIP3      H2             -1.6634399493       -0.8319061368       38.4791769060  TIP3      798             0.0000000000
     10971       863  TIP3      OH2             3.3320267378       -4.3612720543       36.5460955176  TIP3      799             0.0000000000
     10972       863  TIP3      H1              4.0027010669       -5.0728106335       36.5573261632  TIP3      799             0.0000000000
     10973       863  TIP3      H2              3.2044310318       -4.2714427570       35.5787648384  TIP3      799             0.0000000000
     10974       864  TIP3      OH2             3.6871269000       -2.7881343348       38.7128665610  TIP3      800             0.0000000000
     10975       864  TIP3      H1              3.5044729859       -3.3025766700       37.8874828546  TIP3      800             0.0000000000
     10976       864  TIP3      H2              3.1040146053       -2.0093750279       38.6026314757  TIP3      800             0.0000000000
     10977       865  TIP3      OH2             3.2040536959       14.1400015200       21.8144711363  TIP3      801             0.0000000000
     10978       865  TIP3      H1              4.1434122007       14.2755176501       21.8998057056  TIP3      801             0.0000000000
     10979       865  TIP3      H2              2.9117088509       14.7834114048       21.1673788397  TIP3      801             0.0000000000
     10980       866  TIP3      OH2            -4.4872039682       14.1070510503       26.3130184038  TIP3      802             0.0000000000
     10981       866  TIP3      H1             -5.1974393854       13.6228997524       25.8326548934  TIP3      802             0.0000000000
     10982       866  TIP3      H2             -4.2180645032       13.4365753258       26.9589115328  TIP3      802             0.0000000000
     10983       867  TIP3      OH2            -3.6853898941       12.2104911012       28.1810867728  TIP3      803             0.0000000000
     10984       867  TIP3      H1             -4.0604466082       11.3515241884       28.4088362773  TIP3      803             0.0000000000
     10985       867  TIP3      H2             -3.4447932000       12.5583673457       29.0568927890  TIP3      803             0.0000000000
     10986       868  TIP3      OH2            13.8670577157       13.0370541406       31.0749404276  TIP3      804             0.0000000000
     10987       868  TIP3      H1             13.9086223684       13.1694294726       32.0378028071  TIP3      804             0.0000000000
     10988       868  TIP3      H2             14.5675948470       13.6263089144       30.7802135457  TIP3      804             0.0000000000
     10989       869  TIP3      OH2            13.4281843210       12.6165561072       34.0240628738  TIP3      805             0.0000000000
     10990       869  TIP3      H1             12.9560692916       11.8546126046       33.6367817521  TIP3      805             0.0000000000
     10991       869  TIP3      H2             13.8725188847       12.1735332015       34.7631106861  TIP3      805             0.0000000000
     10992       870  TIP3      OH2            11.8725858143        8.3293181219       38.7191272121  TIP3      806             0.0000000000
     10993       870  TIP3      H1             10.9602567165        8.3209736817       39.0709985706  TIP3      806             0.0000000000
     10994       870  TIP3      H2             12.2340648116        9.1505713807       39.1067108363  TIP3      806             0.0000000000
     10995       871  TIP3      OH2            13.1814423701        6.6919328079       24.1383753554  TIP3      807             0.0000000000
     10996       871  TIP3      H1             14.0669527473        7.0584096707       24.3051360550  TIP3      807             0.0000000000
     10997       871  TIP3      H2             13.1775623100        5.9772940186       24.8087505713  TIP3      807             0.0000000000
     10998       872  TIP3      OH2            13.5513895965        4.7589179846       26.0036849892  TIP3      808             0.0000000000
     10999       872  TIP3      H1             12.7786720623        4.2810652968       26.3826207130  TIP3      808             0.0000000000
     11000       872  TIP3      H2             14.1335309011        4.8756480254       26.7802554566  TIP3      808             0.0000000000
     11001       873  TIP3      OH2            13.3010697333        7.4381419528       31.0108627656  TIP3      809             0.0000000000
     11002       873  TIP3      H1             14.0984086210        7.0387784102       30.6179120934  TIP3      809             0.0000000000
     11003       873  TIP3      H2             13.4532100793        8.3868939028       30.8466672112  TIP3      809             0.0000000000
     11004       874  TIP3      OH2            11.8633830427       10.3525547457       33.2718042260  TIP3      810             0.0000000000
     11005       874  TIP3      H1             11.1726855015       10.7031170523       33.8542363160  TIP3      810             0.0000000000
     11006       874  TIP3      H2             11.3229203870        9.9662112372       32.5509962302  TIP3      810             0.0000000000
     11007       875  TIP3      OH2            13.6859412508        4.4292118815       22.4845907273  TIP3      811             0.0000000000
     11008       875  TIP3      H1             13.4259851153        4.8806584290       21.6657027084  TIP3      811             0.0000000000
     11009       875  TIP3      H2             13.8353344877        5.2242231499       23.0281387527  TIP3      811             0.0000000000
     11010       876  TIP3      OH2            11.3632307906        3.2176828619       26.5792060894  TIP3      812             0.0000000000
     11011       876  TIP3      H1             11.2201924184        2.2637903189       26.5633871688  TIP3      812             0.0000000000
     11012       876  TIP3      H2             11.0837829284        3.4235888143       27.4965190790  TIP3      812             0.0000000000
     11013       877  TIP3      OH2            -3.6227360195        5.3193939886       30.6727043621  TIP3      813             0.0000000000
     11014       877  TIP3      H1             -3.4625421981        5.2300594390       29.7087212057  TIP3      813             0.0000000000
     11015       877  TIP3      H2             -2.7250818475        5.1137716906       31.0114437611  TIP3      813             0.0000000000
     11016       878  TIP3      OH2            12.2021823855        5.2153108253       36.2961125223  TIP3      814             0.0000000000
     11017       878  TIP3      H1             12.8208161705        4.4564072772       36.3858042402  TIP3      814             0.0000000000
     11018       878  TIP3      H2             12.8262664817        5.9724590310       36.3020169425  TIP3      814             0.0000000000
     11019       879  TIP3      OH2            13.7997670592        3.2386627360       36.7166626593  TIP3      815             0.0000000000
     11020       879  TIP3      H1             12.9383882013        2.7798250358       36.8284948768  TIP3      815             0.0000000000
     11021       879  TIP3      H2             14.3110006990        2.4342437032       36.9052011436  TIP3      815             0.0000000000
     11022       880  TIP3      OH2            11.0118394769        0.7951322286       24.9821326845  TIP3      816             0.0000000000
     11023       880  TIP3      H1             11.3134658795       -0.1206803148       25.1965682705  TIP3      816             0.0000000000
     11024       880  TIP3      H2             11.8569948713        1.2059724324       24.7622475084  TIP3      816             0.0000000000
     11025       881  TIP3      OH2            11.6820837324        1.3601253875       30.4697875799  TIP3      817             0.0000000000
     11026       881  TIP3      H1             12.6455433362        1.5533349336       30.5040702378  TIP3      817             0.0000000000
     11027       881  TIP3      H2             11.4799257039        1.4202389585       31.4231116951  TIP3      817             0.0000000000
     11028       882  TIP3      OH2            11.7253302874        2.0733009648       33.1847486528  TIP3      818             0.0000000000
     11029       882  TIP3      H1             10.8588585283        2.3492285413       33.5602396510  TIP3      818             0.0000000000
     11030       882  TIP3      H2             12.2032572939        2.9278680205       33.0810592124  TIP3      818             0.0000000000
     11031       883  TIP3      OH2            -3.9880946824        0.6212553759       36.8617020756  TIP3      819             0.0000000000
     11032       883  TIP3      H1             -3.0532651646        0.3803338313       37.0312456491  TIP3      819             0.0000000000
     11033       883  TIP3      H2             -4.4589673191       -0.2156102262       37.0668810007  TIP3      819             0.0000000000
     11034       884  TIP3      OH2            14.1503539193       -3.9038600128       38.7127131178  TIP3      820             0.0000000000
     11035       884  TIP3      H1             14.3868552174       -4.5273359077       38.0042237823  TIP3      820             0.0000000000
     11036       884  TIP3      H2             14.0561367438       -3.1187152345       38.1134609619  TIP3      820             0.0000000000
     11037       885  TIP3      OH2            11.6884215186       -1.8958966413       25.0624379811  TIP3      821             0.0000000000
     11038       885  TIP3      H1             11.9389947134       -2.2881285265       25.9395057956  TIP3      821             0.0000000000
     11039       885  TIP3      H2             11.1151151798       -2.5867444557       24.6622728090  TIP3      821             0.0000000000
     11040       886  TIP3      OH2            -2.8019544806       -1.0945387278       29.6791346579  TIP3      822             0.0000000000
     11041       886  TIP3      H1             -2.3508385668       -1.9296353018       29.9094903712  TIP3      822             0.0000000000
     11042       886  TIP3      H2             -2.2130066415       -0.4129637963       30.0329424988  TIP3      822             0.0000000000
     11043       887  TIP3      OH2            -4.5244345379        1.9246604265       30.6948571121  TIP3      823             0.0000000000
     11044       887  TIP3      H1             -3.9598922263        1.6424087265       29.9468695812  TIP3      823             0.0000000000
     11045       887  TIP3      H2             -4.0255899053        2.7097806615       30.9638816329  TIP3      823             0.0000000000
     11046       888  TIP3      OH2            13.3920489699       -2.2559588317       36.9646534425  TIP3      824             0.0000000000
     11047       888  TIP3      H1             12.8259421302       -1.4447941530       36.9705055067  TIP3      824             0.0000000000
     11048       888  TIP3      H2             13.5106714145       -2.3354448772       36.0111980472  TIP3      824             0.0000000000
     11049       889  TIP3      OH2            13.5500618762       -1.8282830677       21.5969922893  TIP3      825             0.0000000000
     11050       889  TIP3      H1             14.0207652403       -2.5889595235       21.2259956290  TIP3      825             0.0000000000
     11051       889  TIP3      H2             14.2556800394       -1.1972008672       21.7803363550  TIP3      825             0.0000000000
     11052       890  TIP3      OH2            -4.1921134181       -1.8009848306       24.7490894010  TIP3      826             0.0000000000
     11053       890  TIP3      H1             -5.1370860979       -1.6267899253       24.6367650638  TIP3      826             0.0000000000
     11054       890  TIP3      H2             -3.7651724136       -1.3142139389       24.0211677003  TIP3      826             0.0000000000
     11055       891  TIP3      OH2            10.5819599752       13.1199358425       26.6866421677  TIP3      827             0.0000000000
     11056       891  TIP3      H1             11.2803843259       12.8247594014       26.0811647417  TIP3      827             0.0000000000
     11057       891  TIP3      H2             11.0727267170       13.6204734021       27.3567176197  TIP3      827             0.0000000000
     11058       892  TIP3      OH2            -4.2133375193       -3.1983592519       33.0533125599  TIP3      828             0.0000000000
     11059       892  TIP3      H1             -4.8753707953       -3.3884094959       33.7445708277  TIP3      828             0.0000000000
     11060       892  TIP3      H2             -4.6717537733       -2.5232857455       32.5173642863  TIP3      828             0.0000000000
     11061       893  TIP3      OH2            -1.9467575401        9.9890812118       37.2137079126  TIP3      829             0.0000000000
     11062       893  TIP3      H1             -2.7838217610       10.2355958244       36.7848960489  TIP3      829             0.0000000000
     11063       893  TIP3      H2             -2.2132255927        9.9135872037       38.1322852136  TIP3      829             0.0000000000
     11064       894  TIP3      OH2             0.9267082887       11.0332617715       33.5067207341  TIP3      830             0.0000000000
     11065       894  TIP3      H1              0.6528730097       11.9327682078       33.2606775014  TIP3      830             0.0000000000
     11066       894  TIP3      H2              1.8598987236       11.0912524735       33.2168660335  TIP3      830             0.0000000000
     11067       895  TIP3      OH2             5.2442960273       12.4471182435       36.3877387207  TIP3      831             0.0000000000
     11068       895  TIP3      H1              5.3597722530       12.0930294505       37.2967796141  TIP3      831             0.0000000000
     11069       895  TIP3      H2              6.1522662764       12.7658517547       36.1728859852  TIP3      831             0.0000000000
     11070       896  TIP3      OH2             7.5309801543       13.7174544897       35.7270969578  TIP3      832             0.0000000000
     11071       896  TIP3      H1              8.2783923551       13.1574198440       35.4837644580  TIP3      832             0.0000000000
     11072       896  TIP3      H2              7.8942646574       14.1720151406       36.5172263958  TIP3      832             0.0000000000
     11073       897  TIP3      OH2            12.5925182284       -3.7016326255       34.7952638688  TIP3      833             0.0000000000
     11074       897  TIP3      H1             11.7610456442       -3.3517416113       34.4374408038  TIP3      833             0.0000000000
     11075       897  TIP3      H2             12.6989790952       -4.5324306763       34.2899687102  TIP3      833             0.0000000000
     11076       898  TIP3      OH2            -1.6516905996       14.2585852813       33.4723780062  TIP3      834             0.0000000000
     11077       898  TIP3      H1             -2.3841160478       14.7754165076       33.0975749180  TIP3      834             0.0000000000
     11078       898  TIP3      H2             -1.9316476272       14.0903683767       34.3843869557  TIP3      834             0.0000000000
     11079       899  TIP3      OH2             0.8149775719       13.8255890096       32.5518874768  TIP3      835             0.0000000000
     11080       899  TIP3      H1             -0.0717548769       14.0063965761       32.9466367033  TIP3      835             0.0000000000
     11081       899  TIP3      H2              0.7791543497       14.4297261253       31.7905735232  TIP3      835             0.0000000000
     11082       900  TIP3      OH2             5.5341906436       13.7430208419       31.7204664180  TIP3      836             0.0000000000
     11083       900  TIP3      H1              5.0608502633       14.3024405295       31.0862600080  TIP3      836             0.0000000000
     11084       900  TIP3      H2              5.6586556739       14.3636637631       32.4732983725  TIP3      836             0.0000000000
     11085       901  TIP3      OH2             7.7820931706       12.5072200241       32.8235501786  TIP3      837             0.0000000000
     11086       901  TIP3      H1              6.9694891669       12.8282537843       32.3898438119  TIP3      837             0.0000000000
     11087       901  TIP3      H2              8.3235236821       13.3058408687       32.7211402138  TIP3      837             0.0000000000
     11088       902  TIP3      OH2            10.3601813401       14.0758880845       32.9643389890  TIP3      838             0.0000000000
     11089       902  TIP3      H1             10.3774816252       15.0418192278       32.7539536007  TIP3      838             0.0000000000
     11090       902  TIP3      H2             10.6091537522       13.7054031012       32.0925556630  TIP3      838             0.0000000000
     11091       903  TIP3      OH2            -2.1612946000       12.9043167993       30.4421103376  TIP3      839             0.0000000000
     11092       903  TIP3      H1             -2.2630143513       12.4288932763       31.2924906754  TIP3      839             0.0000000000
     11093       903  TIP3      H2             -1.3501674956       12.5026681576       30.0607736398  TIP3      839             0.0000000000
     11094       904  TIP3      OH2            -0.0983771405       11.6083201907       29.0911228082  TIP3      840             0.0000000000
     11095       904  TIP3      H1             -0.2561198940       10.6749939793       29.3383842013  TIP3      840             0.0000000000
     11096       904  TIP3      H2              0.7572380243       11.7843066206       29.5337332032  TIP3      840             0.0000000000
     11097       905  TIP3      OH2             2.5075482414       12.1008741270       29.9938727506  TIP3      841             0.0000000000
     11098       905  TIP3      H1              2.6461019400       11.1756163269       29.7240782921  TIP3      841             0.0000000000
     11099       905  TIP3      H2              2.5336975333       12.0137068416       30.9591443541  TIP3      841             0.0000000000
     11100       906  TIP3      OH2             5.8755452724       -2.2602382421       29.0632085589  TIP3      842             0.0000000000
     11101       906  TIP3      H1              5.2607385688       -2.9147669627       29.4186105235  TIP3      842             0.0000000000
     11102       906  TIP3      H2              6.5119162763       -2.8031339060       28.5655294562  TIP3      842             0.0000000000
     11103       907  TIP3      OH2            11.2093842345       -4.4669286331       28.7602551251  TIP3      843             0.0000000000
     11104       907  TIP3      H1             11.7672703142       -3.6762797588       28.5605655332  TIP3      843             0.0000000000
     11105       907  TIP3      H2             10.4054278588       -3.9998635386       29.1008877961  TIP3      843             0.0000000000
     11106       908  TIP3      OH2            12.7700420295       -2.8620677895       27.3685362254  TIP3      844             0.0000000000
     11107       908  TIP3      H1             13.4337287513       -3.5127363872       27.0461103321  TIP3      844             0.0000000000
     11108       908  TIP3      H2             13.3176948283       -2.0729752870       27.5677043434  TIP3      844             0.0000000000
     11109       909  TIP3      OH2            -1.6973237945       -3.6481641017       27.0298351397  TIP3      845             0.0000000000
     11110       909  TIP3      H1             -2.4597669661       -3.7803074693       26.4369267817  TIP3      845             0.0000000000
     11111       909  TIP3      H2             -1.2397641106       -4.5003212924       26.9052732615  TIP3      845             0.0000000000
     11112       910  TIP3      OH2            -2.8864885948       -3.8805214631       22.7228810750  TIP3      846             0.0000000000
     11113       910  TIP3      H1             -2.4278145165       -3.2358890788       22.1529295499  TIP3      846             0.0000000000
     11114       910  TIP3      H2             -3.4621459643       -3.3284814135       23.2669759793  TIP3      846             0.0000000000
     11115       911  TIP3      OH2             2.7557935831       -3.7183308349       26.7344059514  TIP3      847             0.0000000000
     11116       911  TIP3      H1              3.6531675310       -3.3579962081       26.6377178282  TIP3      847             0.0000000000
     11117       911  TIP3      H2              2.7625444854       -3.9262416243       27.6715373954  TIP3      847             0.0000000000
     11118       912  TIP3      OH2             8.2873248377       -3.6204037719       28.2570232509  TIP3      848             0.0000000000
     11119       912  TIP3      H1              8.4629824698       -3.5964013359       27.3166195029  TIP3      848             0.0000000000
     11120       912  TIP3      H2              8.1445533678       -4.5727537563       28.4513194144  TIP3      848             0.0000000000
     11121       913  TIP3      OH2             9.7590895187       -3.6549315681       24.0311565933  TIP3      849             0.0000000000
     11122       913  TIP3      H1              9.0024888536       -3.0949957196       23.8133682943  TIP3      849             0.0000000000
     11123       913  TIP3      H2              9.3268622740       -4.4985864617       24.3053028260  TIP3      849             0.0000000000
     11124       914  TIP3      OH2            -3.0614176279       12.0647050801       23.6956862757  TIP3      850             0.0000000000
     11125       914  TIP3      H1             -3.7032787317       12.1306226550       22.9802679495  TIP3      850             0.0000000000
     11126       914  TIP3      H2             -2.9754809277       13.0093810852       23.8681309440  TIP3      850             0.0000000000
     11127       915  TIP3      OH2            -1.1007046313       -2.0526108302       21.2886286773  TIP3      851             0.0000000000
     11128       915  TIP3      H1             -0.5640368949       -2.4810319826       20.6226382640  TIP3      851             0.0000000000
     11129       915  TIP3      H2             -0.4268064315       -1.5464619393       21.7666071179  TIP3      851             0.0000000000
     11130       916  TIP3      OH2             3.9364748362       -1.6668805773       23.6408151625  TIP3      852             0.0000000000
     11131       916  TIP3      H1              4.2297813023       -2.2406307320       24.3692467563  TIP3      852             0.0000000000
     11132       916  TIP3      H2              4.0503446695       -0.7946716038       24.0728432657  TIP3      852             0.0000000000
     11133       917  TIP3      OH2            12.5937085568       12.8877565320       24.7230203438  TIP3      853             0.0000000000
     11134       917  TIP3      H1             12.3400162831       12.1038332623       24.1880136925  TIP3      853             0.0000000000
     11135       917  TIP3      H2             12.4876340074       13.6144273168       24.0671454086  TIP3      853             0.0000000000
     11136       918  TIP3      OH2            -1.8051142461       -3.0768595649       36.4066083487  TIP3      854             0.0000000000
     11137       918  TIP3      H1             -2.2299224479       -3.8827468143       36.7692969421  TIP3      854             0.0000000000
     11138       918  TIP3      H2             -0.9118211816       -3.1395013153       36.8222994647  TIP3      854             0.0000000000
     11139       919  TIP3      OH2             0.1805398316       -3.6785422576       38.0980212594  TIP3      855             0.0000000000
     11140       919  TIP3      H1              1.0687406298       -4.0153690045       37.8589874591  TIP3      855             0.0000000000
     11141       919  TIP3      H2             -0.1900483985       -4.4971345306       38.4822589027  TIP3      855             0.0000000000
     11142       920  TIP3      OH2             8.6056756893       -4.4122021389       38.2251040538  TIP3      856             0.0000000000
     11143       920  TIP3      H1              8.7102787641       -4.8868234965       39.0705708144  TIP3      856             0.0000000000
     11144       920  TIP3      H2              9.5117815196       -4.4441389528       37.8634257009  TIP3      856             0.0000000000
     11145       921  TIP3      OH2            11.8127994833       11.6471807356       36.8164189067  TIP3      857             0.0000000000
     11146       921  TIP3      H1             11.0169919022       11.5226647118       36.2549751615  TIP3      857             0.0000000000
     11147       921  TIP3      H2             11.6911380765       12.5908822206       37.0403044616  TIP3      857             0.0000000000
     11148       922  TIP3      OH2            17.4369198846        4.4448624929       31.8622283975  TIP3      858             0.0000000000
     11149       922  TIP3      H1             17.5319064852        3.7438724968       32.5401119856  TIP3      858             0.0000000000
     11150       922  TIP3      H2             18.1836132646        5.0125555973       32.0958280090  TIP3      858             0.0000000000
     11151       923  TIP3      OH2            18.3827876690        8.8979753108       30.3357303231  TIP3      859             0.0000000000
     11152       923  TIP3      H1             18.0726916725        8.0193355185       30.0387621268  TIP3      859             0.0000000000
     11153       923  TIP3      H2             19.3403608576        8.7098158858       30.3748322178  TIP3      859             0.0000000000
     11154       924  TIP3      OH2            15.0210096922        2.4330820245       25.8247654983  TIP3      860             0.0000000000
     11155       924  TIP3      H1             14.6103295870        3.3170871236       25.8081515192  TIP3      860             0.0000000000
     11156       924  TIP3      H2             14.4253187526        1.8996748409       25.2928583355  TIP3      860             0.0000000000
     11157       925  TIP3      OH2            15.7637569370        4.6812191858       28.0386325133  TIP3      861             0.0000000000
     11158       925  TIP3      H1             16.0496838070        3.8374820842       28.4492003069  TIP3      861             0.0000000000
     11159       925  TIP3      H2             16.4086698337        4.8010087057       27.3298207529  TIP3      861             0.0000000000
     11160       926  TIP3      OH2            19.5154560253       -0.2808254373       28.3075110265  TIP3      862             0.0000000000
     11161       926  TIP3      H1             19.9124219286        0.4897959948       27.8426670628  TIP3      862             0.0000000000
     11162       926  TIP3      H2             19.2761822790       -0.8492958106       27.5518551662  TIP3      862             0.0000000000
     11163       927  TIP3      OH2            16.3958770289        2.1364878273       29.0413438890  TIP3      863             0.0000000000
     11164       927  TIP3      H1             17.0687976897        1.6065813223       29.5049860939  TIP3      863             0.0000000000
     11165       927  TIP3      H2             16.5303719234        1.8116903590       28.1360026209  TIP3      863             0.0000000000
     11166       928  TIP3      OH2            21.5458269174        3.6904171805       28.4009544200  TIP3      864             0.0000000000
     11167       928  TIP3      H1             22.2301855606        3.1058048298       28.7745064515  TIP3      864             0.0000000000
     11168       928  TIP3      H2             21.0088451395        3.0476244388       27.8953266363  TIP3      864             0.0000000000
     11169       929  TIP3      OH2            18.6850909908       -1.3655432288       32.3334505859  TIP3      865             0.0000000000
     11170       929  TIP3      H1             18.3815666955       -0.7657031918       31.6157490084  TIP3      865             0.0000000000
     11171       929  TIP3      H2             18.0069253669       -1.1544544049       33.0260462546  TIP3      865             0.0000000000
     11172       930  TIP3      OH2            21.2084748042        6.2843775053       32.5979743523  TIP3      866             0.0000000000
     11173       930  TIP3      H1             20.4477570125        6.8671743358       32.8352591792  TIP3      866             0.0000000000
     11174       930  TIP3      H2             21.8354982118        6.9377495148       32.2774202443  TIP3      866             0.0000000000
     11175       931  TIP3      OH2            18.2434947275        0.4902259046       30.4400084121  TIP3      867             0.0000000000
     11176       931  TIP3      H1             18.8886740461        1.1726806161       30.7221662935  TIP3      867             0.0000000000
     11177       931  TIP3      H2             18.7087292206        0.1056640118       29.6463780225  TIP3      867             0.0000000000
     11178       932  TIP3      OH2            19.6419084423        8.2824362864       33.4042587225  TIP3      868             0.0000000000
     11179       932  TIP3      H1             19.5850471582        9.2011357022       33.0846415146  TIP3      868             0.0000000000
     11180       932  TIP3      H2             18.7610527860        8.1881603116       33.8554270410  TIP3      868             0.0000000000
     11181       933  TIP3      OH2            15.6529198191        7.8631910870       24.1337762221  TIP3      869             0.0000000000
     11182       933  TIP3      H1             15.4490407603        8.2096332385       23.2589459581  TIP3      869             0.0000000000
     11183       933  TIP3      H2             15.7974443554        8.6621323373       24.6706158118  TIP3      869             0.0000000000
     11184       934  TIP3      OH2            22.5564463927       -4.0522805215       29.7434433048  TIP3      870             0.0000000000
     11185       934  TIP3      H1             22.4704131527       -5.0102546221       29.8033765634  TIP3      870             0.0000000000
     11186       934  TIP3      H2             21.7220324810       -3.7336203804       30.1262183165  TIP3      870             0.0000000000
     11187       935  TIP3      OH2            19.9347762769        5.6017340542       27.1788614027  TIP3      871             0.0000000000
     11188       935  TIP3      H1             19.6711479735        5.2143034001       26.3098688657  TIP3      871             0.0000000000
     11189       935  TIP3      H2             20.5847286245        4.9435404318       27.5172084888  TIP3      871             0.0000000000
     11190       936  TIP3      OH2            21.2257939431        8.9255494273       29.8928836406  TIP3      872             0.0000000000
     11191       936  TIP3      H1             21.2561738907        8.5159159569       29.0118731269  TIP3      872             0.0000000000
     11192       936  TIP3      H2             22.1273614396        8.7482012855       30.2167031008  TIP3      872             0.0000000000
     11193       937  TIP3      OH2            20.2853360921        4.4007814313       30.8756067425  TIP3      873             0.0000000000
     11194       937  TIP3      H1             20.8589292439        4.4052972307       30.0823247515  TIP3      873             0.0000000000
     11195       937  TIP3      H2             20.7483171350        5.0465016682       31.4538441572  TIP3      873             0.0000000000
     11196       938  TIP3      OH2            21.2210594131        8.6885390322       35.5469307250  TIP3      874             0.0000000000
     11197       938  TIP3      H1             20.8955173683        9.4956644303       36.0055659272  TIP3      874             0.0000000000
     11198       938  TIP3      H2             20.6001465568        8.5727621151       34.7965579148  TIP3      874             0.0000000000
     11199       939  TIP3      OH2            18.2273963719        4.9600030976       34.6392366821  TIP3      875             0.0000000000
     11200       939  TIP3      H1             18.2755095240        5.6345170320       35.3427104175  TIP3      875             0.0000000000
     11201       939  TIP3      H2             17.2665765448        4.9876856021       34.4827415980  TIP3      875             0.0000000000
     11202       940  TIP3      OH2            19.5469567791       10.7998185307       36.2633466718  TIP3      876             0.0000000000
     11203       940  TIP3      H1             19.4375577328       10.7118140305       35.2954382176  TIP3      876             0.0000000000
     11204       940  TIP3      H2             18.6208947609       10.6835485706       36.5544912867  TIP3      876             0.0000000000
     11205       941  TIP3      OH2            18.9109207253        4.6065722478       24.8165903721  TIP3      877             0.0000000000
     11206       941  TIP3      H1             18.6453393377        5.3947197177       24.2882151788  TIP3      877             0.0000000000
     11207       941  TIP3      H2             18.2209553318        3.9869266036       24.5616920385  TIP3      877             0.0000000000
     11208       942  TIP3      OH2            15.0209060090        7.0633573524       33.7152935762  TIP3      878             0.0000000000
     11209       942  TIP3      H1             14.5853238633        6.9888385198       32.8496420801  TIP3      878             0.0000000000
     11210       942  TIP3      H2             15.1380434532        6.1129283481       33.9168071728  TIP3      878             0.0000000000
     11211       943  TIP3      OH2            14.7994020813        9.8062096202       30.4534470257  TIP3      879             0.0000000000
     11212       943  TIP3      H1             15.7597050962        9.6981802350       30.4081742879  TIP3      879             0.0000000000
     11213       943  TIP3      H2             14.7186169572       10.6319792770       30.9470830371  TIP3      879             0.0000000000
     11214       944  TIP3      OH2            18.0666583780       12.6903702429       26.6825886801  TIP3      880             0.0000000000
     11215       944  TIP3      H1             18.2197250348       12.2676313156       27.5553709496  TIP3      880             0.0000000000
     11216       944  TIP3      H2             17.2331519143       12.2613610892       26.4330720915  TIP3      880             0.0000000000
     11217       945  TIP3      OH2            17.3104032544        8.3769078959       34.6150846002  TIP3      881             0.0000000000
     11218       945  TIP3      H1             17.5397003843        8.0488173645       35.5128287804  TIP3      881             0.0000000000
     11219       945  TIP3      H2             16.4388830339        7.9696250644       34.4290067441  TIP3      881             0.0000000000
     11220       946  TIP3      OH2            20.0185761065       -3.0924978176       30.5405277613  TIP3      882             0.0000000000
     11221       946  TIP3      H1             19.1040828354       -3.2630985022       30.2208680084  TIP3      882             0.0000000000
     11222       946  TIP3      H2             19.8623649098       -2.2899151957       31.0725176721  TIP3      882             0.0000000000
     11223       947  TIP3      OH2            20.0750695056        1.8247329177       31.8978814660  TIP3      883             0.0000000000
     11224       947  TIP3      H1             19.2962830280        1.8328147363       32.4902853015  TIP3      883             0.0000000000
     11225       947  TIP3      H2             20.0244926907        2.7028416040       31.4687775198  TIP3      883             0.0000000000
     11226       948  TIP3      OH2            20.0370993042        1.9284285853       26.6655127503  TIP3      884             0.0000000000
     11227       948  TIP3      H1             19.0928505238        1.6958265997       26.5648071725  TIP3      884             0.0000000000
     11228       948  TIP3      H2             20.3985562720        1.6146512351       25.8198093755  TIP3      884             0.0000000000
     11229       949  TIP3      OH2            17.6901434274        2.0783523325       33.5039643430  TIP3      885             0.0000000000
     11230       949  TIP3      H1             17.8075824514        2.4630857359       34.3839963090  TIP3      885             0.0000000000
     11231       949  TIP3      H2             17.2876071812        1.2252954834       33.7239041860  TIP3      885             0.0000000000
     11232       950  TIP3      OH2            14.4108419884       -0.8120552149       27.5125395052  TIP3      886             0.0000000000
     11233       950  TIP3      H1             15.0932365754       -0.8801145629       28.2130612689  TIP3      886             0.0000000000
     11234       950  TIP3      H2             14.8483525133       -1.1826246632       26.7273195287  TIP3      886             0.0000000000
     11235       951  TIP3      OH2            15.5643819060       -0.0477823428       22.8110816100  TIP3      887             0.0000000000
     11236       951  TIP3      H1             16.1884194357        0.5468631912       22.3355224132  TIP3      887             0.0000000000
     11237       951  TIP3      H2             14.9698446393        0.6288669711       23.2037065136  TIP3      887             0.0000000000
     11238       952  TIP3      OH2            22.0917313017       -0.2342242389       27.8450904672  TIP3      888             0.0000000000
     11239       952  TIP3      H1             21.3036236183       -0.6040367695       28.2757209028  TIP3      888             0.0000000000
     11240       952  TIP3      H2             22.7911517957       -0.4501810898       28.4759700450  TIP3      888             0.0000000000
     11241       953  TIP3      OH2            17.3767305213        1.0563221039       26.5998290254  TIP3      889             0.0000000000
     11242       953  TIP3      H1             16.5249734182        1.2486318336       26.1549636139  TIP3      889             0.0000000000
     11243       953  TIP3      H2             17.6787315055        0.2361299418       26.1697285070  TIP3      889             0.0000000000
     11244       954  TIP3      OH2            21.1263269174        1.0987211200       24.2257640884  TIP3      890             0.0000000000
     11245       954  TIP3      H1             22.0293686527        1.3399831111       24.3756486617  TIP3      890             0.0000000000
     11246       954  TIP3      H2             20.8065785951        1.7094604720       23.5319318622  TIP3      890             0.0000000000
     11247       955  TIP3      OH2            19.8133898884        2.3376058239       21.7889983923  TIP3      891             0.0000000000
     11248       955  TIP3      H1             19.1975908895        1.9869878731       21.1178725126  TIP3      891             0.0000000000
     11249       955  TIP3      H2             20.5892090032        2.4406840958       21.2255721254  TIP3      891             0.0000000000
     11250       956  TIP3      OH2            17.8885779676        6.8647532880       36.8354531882  TIP3      892             0.0000000000
     11251       956  TIP3      H1             18.6272521696        7.1089575396       37.4202782852  TIP3      892             0.0000000000
     11252       956  TIP3      H2             17.1384353417        6.8979825043       37.4659205536  TIP3      892             0.0000000000
     11253       957  TIP3      OH2            18.8872843886       -1.5756698821       25.9694409800  TIP3      893             0.0000000000
     11254       957  TIP3      H1             18.5851661860       -2.5007422245       26.0466121992  TIP3      893             0.0000000000
     11255       957  TIP3      H2             19.7253751045       -1.6748178004       25.5044207191  TIP3      893             0.0000000000
     11256       958  TIP3      OH2            22.3869952515        0.4088219352       32.3111227045  TIP3      894             0.0000000000
     11257       958  TIP3      H1             21.7424282007        1.0721656488       31.9836830451  TIP3      894             0.0000000000
     11258       958  TIP3      H2             23.0754883911        0.9849504252       32.6222473720  TIP3      894             0.0000000000
     11259       959  TIP3      OH2            23.0588610150        6.6029223752       23.7053850928  TIP3      895             0.0000000000
     11260       959  TIP3      H1             22.1716542662        6.3422736693       23.3922845826  TIP3      895             0.0000000000
     11261       959  TIP3      H2             22.8723954888        6.9608697237       24.5826773940  TIP3      895             0.0000000000
     11262       960  TIP3      OH2            18.2715302611        6.2307845897       29.5143384726  TIP3      896             0.0000000000
     11263       960  TIP3      H1             18.8927371883        6.1188824562       28.7690441063  TIP3      896             0.0000000000
     11264       960  TIP3      H2             18.3171999376        5.3639596152       29.9582428938  TIP3      896             0.0000000000
     11265       961  TIP3      OH2            15.2252229744        4.6156321531       34.7496065872  TIP3      897             0.0000000000
     11266       961  TIP3      H1             15.3407009021        4.1576296612       35.6101836643  TIP3      897             0.0000000000
     11267       961  TIP3      H2             14.5934008032        4.0133469364       34.3130827508  TIP3      897             0.0000000000
     11268       962  TIP3      OH2            22.3520161094        4.2302621787       36.9007064535  TIP3      898             0.0000000000
     11269       962  TIP3      H1             21.8529491008        3.8343015772       36.1642804947  TIP3      898             0.0000000000
     11270       962  TIP3      H2             23.1591289857        3.7051430528       36.9228704254  TIP3      898             0.0000000000
     11271       963  TIP3      OH2            20.5785334355        9.7210271428       27.0092389795  TIP3      899             0.0000000000
     11272       963  TIP3      H1             21.0993976642       10.4504629097       26.6397341684  TIP3      899             0.0000000000
     11273       963  TIP3      H2             19.7284847862        9.8837963380       26.5831861603  TIP3      899             0.0000000000
     11274       964  TIP3      OH2            22.0275287982        7.3477585207       26.4029494124  TIP3      900             0.0000000000
     11275       964  TIP3      H1             21.6928665164        8.2573781538       26.5019206731  TIP3      900             0.0000000000
     11276       964  TIP3      H2             21.2958960305        6.8423878699       26.7995658173  TIP3      900             0.0000000000
     11277       965  TIP3      OH2            22.4774380384       11.4950827741       32.7597190979  TIP3      901             0.0000000000
     11278       965  TIP3      H1             22.8975232522       12.3473994398       32.5995479831  TIP3      901             0.0000000000
     11279       965  TIP3      H2             23.0372591926       11.1268182534       33.4562907238  TIP3      901             0.0000000000
     11280       966  TIP3      OH2            20.7172918558       12.3968702308       25.9530098993  TIP3      902             0.0000000000
     11281       966  TIP3      H1             19.7481053540       12.4115047684       26.1390443333  TIP3      902             0.0000000000
     11282       966  TIP3      H2             20.9725533189       13.1999914526       26.4215556015  TIP3      902             0.0000000000
     11283       967  TIP3      OH2            16.8834533433       -0.7351229556       34.2248015453  TIP3      903             0.0000000000
     11284       967  TIP3      H1             16.0354598959       -0.2780922312       34.4042267100  TIP3      903             0.0000000000
     11285       967  TIP3      H2             16.7781986728       -1.4880811854       34.8231232620  TIP3      903             0.0000000000
     11286       968  TIP3      OH2            16.4962642424       11.1025549430       32.7299513850  TIP3      904             0.0000000000
     11287       968  TIP3      H1             16.8444845896       10.2008269756       32.7400234441  TIP3      904             0.0000000000
     11288       968  TIP3      H2             16.7520426934       11.4198637508       33.6021576115  TIP3      904             0.0000000000
     11289       969  TIP3      OH2            17.8420372830        6.4360081334       22.9935074755  TIP3      905             0.0000000000
     11290       969  TIP3      H1             17.0947492506        6.8132937246       23.4931765634  TIP3      905             0.0000000000
     11291       969  TIP3      H2             18.3417632556        7.2029988634       22.6744092086  TIP3      905             0.0000000000
     11292       970  TIP3      OH2            21.3320886129       11.9479140260       23.1708181362  TIP3      906             0.0000000000
     11293       970  TIP3      H1             21.5420936477       12.7171207222       22.6636155335  TIP3      906             0.0000000000
     11294       970  TIP3      H2             21.1476098724       12.2140513991       24.0900895135  TIP3      906             0.0000000000
     11295       971  TIP3      OH2            16.5582423904        1.7260783814       21.0133630818  TIP3      907             0.0000000000
     11296       971  TIP3      H1             16.6698487672        2.6898966326       21.0951457272  TIP3      907             0.0000000000
     11297       971  TIP3      H2             15.7304921108        1.6231099445       20.5474324469  TIP3      907             0.0000000000
     11298       972  TIP3      OH2            17.4532945079       -3.5192075821       29.7598779702  TIP3      908             0.0000000000
     11299       972  TIP3      H1             17.3322258095       -3.4804470942       28.7829872531  TIP3      908             0.0000000000
     11300       972  TIP3      H2             17.0348202044       -4.3812245326       29.9622153836  TIP3      908             0.0000000000
     11301       973  TIP3      OH2            16.3873710657       10.4123110755       25.8371241604  TIP3      909             0.0000000000
     11302       973  TIP3      H1             15.5544903598       10.9029730446       25.8228374200  TIP3      909             0.0000000000
     11303       973  TIP3      H2             16.8915194628       10.8512652677       25.1392940164  TIP3      909             0.0000000000
     11304       974  TIP3      OH2            15.6051631897       13.0796003499       37.1249367126  TIP3      910             0.0000000000
     11305       974  TIP3      H1             16.2427048239       12.9012075633       37.8428227136  TIP3      910             0.0000000000
     11306       974  TIP3      H2             15.2449304696       12.1922692406       36.9518051262  TIP3      910             0.0000000000
     11307       975  TIP3      OH2            20.3446684731       12.0000184195       38.7163509741  TIP3      911             0.0000000000
     11308       975  TIP3      H1             21.1234214371       11.5204002102       39.0571860314  TIP3      911             0.0000000000
     11309       975  TIP3      H2             20.2854674445       11.6784502744       37.7946089573  TIP3      911             0.0000000000
     11310       976  TIP3      OH2            15.5080268985        6.8241660349       38.1387481386  TIP3      912             0.0000000000
     11311       976  TIP3      H1             15.6769112855        5.9107121747       37.8394722730  TIP3      912             0.0000000000
     11312       976  TIP3      H2             14.8009932578        7.0960058364       37.5300238425  TIP3      912             0.0000000000
     11313       977  TIP3      OH2            22.2200753397        6.8754639754       37.5168136699  TIP3      913             0.0000000000
     11314       977  TIP3      H1             21.8720938356        7.2170794347       36.6648339449  TIP3      913             0.0000000000
     11315       977  TIP3      H2             22.2984577949        5.9027169432       37.3481353709  TIP3      913             0.0000000000
     11316       978  TIP3      OH2            16.5153804310        4.0986895227       37.5407408270  TIP3      914             0.0000000000
     11317       978  TIP3      H1             16.9237518941        3.2297809317       37.4384039455  TIP3      914             0.0000000000
     11318       978  TIP3      H2             16.2729987354        4.0957573264       38.4799809222  TIP3      914             0.0000000000
     11319       979  TIP3      OH2            21.1311835891        5.0986117063       22.5838873448  TIP3      915             0.0000000000
     11320       979  TIP3      H1             20.5196826419        4.6721605772       23.1952020884  TIP3      915             0.0000000000
     11321       979  TIP3      H2             21.2820521623        4.4686191350       21.8804023984  TIP3      915             0.0000000000
     11322       980  TIP3      OH2            20.3746248149        3.0435825738       34.8827216563  TIP3      916             0.0000000000
     11323       980  TIP3      H1             19.7024811872        3.7102941921       35.0913900902  TIP3      916             0.0000000000
     11324       980  TIP3      H2             20.7538155537        3.4027696807       34.0598900598  TIP3      916             0.0000000000
     11325       981  TIP3      OH2            20.8650858299        0.3701774942       35.8405689339  TIP3      917             0.0000000000
     11326       981  TIP3      H1             20.8686200175       -0.3427366943       35.1743418845  TIP3      917             0.0000000000
     11327       981  TIP3      H2             20.6922908569        1.1862080999       35.3240372240  TIP3      917             0.0000000000
     11328       982  TIP3      OH2            21.1358024313       -1.4212983702       33.4727204707  TIP3      918             0.0000000000
     11329       982  TIP3      H1             21.6244668228       -0.7991838373       32.8755405282  TIP3      918             0.0000000000
     11330       982  TIP3      H2             20.2399256889       -1.2999935630       33.0973550459  TIP3      918             0.0000000000
     11331       983  TIP3      OH2            22.4680132807        4.0910569435       33.3755678921  TIP3      919             0.0000000000
     11332       983  TIP3      H1             23.3411060387        4.0873743215       32.9552958987  TIP3      919             0.0000000000
     11333       983  TIP3      H2             22.2200536742        5.0353422116       33.2745283570  TIP3      919             0.0000000000
     11334       984  TIP3      OH2            19.2456746417        1.6725442307       37.8215009195  TIP3      920             0.0000000000
     11335       984  TIP3      H1             18.4848233877        1.0653549244       37.6868508991  TIP3      920             0.0000000000
     11336       984  TIP3      H2             19.8857015109        1.2506063884       37.2223019796  TIP3      920             0.0000000000
     11337       985  TIP3      OH2            21.6618334210       -3.8756737363       34.0344066267  TIP3      921             0.0000000000
     11338       985  TIP3      H1             21.6129109464       -2.9026562869       33.8405299228  TIP3      921             0.0000000000
     11339       985  TIP3      H2             21.0402243035       -4.2157009228       33.3619005807  TIP3      921             0.0000000000
     11340       986  TIP3      OH2            22.6835636269        0.9393763836       37.9523705396  TIP3      922             0.0000000000
     11341       986  TIP3      H1             22.7391217632        0.1933846549       38.5646322051  TIP3      922             0.0000000000
     11342       986  TIP3      H2             22.2777031022        0.5204637045       37.1622136719  TIP3      922             0.0000000000
     11343       987  TIP3      OH2            17.6052883167       -0.4559091242       37.7257444872  TIP3      923             0.0000000000
     11344       987  TIP3      H1             17.5034934940       -1.1452723507       37.0407273073  TIP3      923             0.0000000000
     11345       987  TIP3      H2             17.2402570976       -0.8895631802       38.5165057670  TIP3      923             0.0000000000
     11346       988  TIP3      OH2            22.2413300849       -4.3691351858       36.5591431705  TIP3      924             0.0000000000
     11347       988  TIP3      H1             22.9173050210       -5.0570138616       36.5015198037  TIP3      924             0.0000000000
     11348       988  TIP3      H2             22.0182147970       -4.2375243904       35.6034838283  TIP3      924             0.0000000000
     11349       989  TIP3      OH2            22.5904421705       -2.8030981362       38.6888420762  TIP3      925             0.0000000000
     11350       989  TIP3      H1             22.3801305212       -3.3009387729       37.8553952411  TIP3      925             0.0000000000
     11351       989  TIP3      H2             21.9533128642       -2.0514024082       38.6698090075  TIP3      925             0.0000000000
     11352       990  TIP3      OH2            14.3600283922       14.0763522692       26.2677757084  TIP3      926             0.0000000000
     11353       990  TIP3      H1             13.6108675209       13.5968093408       25.8435211059  TIP3      926             0.0000000000
     11354       990  TIP3      H2             14.6188525722       13.4544063952       26.9738904113  TIP3      926             0.0000000000
     11355       991  TIP3      OH2            15.1679717502       12.2312156058       28.1764628213  TIP3      927             0.0000000000
     11356       991  TIP3      H1             14.8046787406       11.3608376157       28.3896655779  TIP3      927             0.0000000000
     11357       991  TIP3      H2             15.4058134330       12.5689332574       29.0603227178  TIP3      927             0.0000000000
     11358       992  TIP3      OH2            15.2243358586        5.3155528402       30.6716402672  TIP3      928             0.0000000000
     11359       992  TIP3      H1             15.3842480515        5.2201480595       29.7076378032  TIP3      928             0.0000000000
     11360       992  TIP3      H2             16.1204844826        5.1132417100       31.0093463570  TIP3      928             0.0000000000
     11361       993  TIP3      OH2            15.5546242189        0.2341238563       36.3095838447  TIP3      929             0.0000000000
     11362       993  TIP3      H1             16.1103900897        0.3284149289       37.1033772823  TIP3      929             0.0000000000
     11363       993  TIP3      H2             14.6902464248        0.0498083418       36.7542447811  TIP3      929             0.0000000000
     11364       994  TIP3      OH2            16.0920536166       -1.0954725752       29.6464809739  TIP3      930             0.0000000000
     11365       994  TIP3      H1             16.5285346035       -1.9268452246       29.9152492719  TIP3      930             0.0000000000
     11366       994  TIP3      H2             16.6625044247       -0.4179761265       30.0351401030  TIP3      930             0.0000000000
     11367       995  TIP3      OH2            14.3111083503        1.9131762089       30.6880013563  TIP3      931             0.0000000000
     11368       995  TIP3      H1             14.8938417893        1.6335941627       29.9549860896  TIP3      931             0.0000000000
     11369       995  TIP3      H2             14.8099277732        2.6741569158       31.0182041586  TIP3      931             0.0000000000
     11370       996  TIP3      OH2            14.7346146320       -1.8558511918       24.6834564226  TIP3      932             0.0000000000
     11371       996  TIP3      H1             13.7789973696       -1.6866425856       24.6566461948  TIP3      932             0.0000000000
     11372       996  TIP3      H2             15.0823784553       -1.2850088819       23.9933913059  TIP3      932             0.0000000000
     11373       997  TIP3      OH2            14.6269525875       -3.1722902735       33.0660589715  TIP3      933             0.0000000000
     11374       997  TIP3      H1             13.9574795415       -3.3579097450       33.7543483014  TIP3      933             0.0000000000
     11375       997  TIP3      H2             14.1664404956       -2.4857435928       32.5433263993  TIP3      933             0.0000000000
     11376       998  TIP3      OH2            16.9079906180        9.9922346563       37.2106883187  TIP3      934             0.0000000000
     11377       998  TIP3      H1             16.0693508195       10.2368080009       36.7829627795  TIP3      934             0.0000000000
     11378       998  TIP3      H2             16.6471734677        9.9131111958       38.1307392607  TIP3      934             0.0000000000
     11379       999  TIP3      OH2            19.7544763716       11.0856971642       33.5378643538  TIP3      935             0.0000000000
     11380       999  TIP3      H1             19.4908416808       11.9662722625       33.2302693803  TIP3      935             0.0000000000
     11381       999  TIP3      H2             20.6953889734       11.1105968817       33.2653917593  TIP3      935             0.0000000000
     11382      1000  TIP3      OH2            17.2066016832       14.2634749870       33.4729107246  TIP3      936             0.0000000000
     11383      1000  TIP3      H1             16.4700655544       14.7799865133       33.1033523274  TIP3      936             0.0000000000
     11384      1000  TIP3      H2             16.9274747550       14.0902229330       34.3843201730  TIP3      936             0.0000000000
     11385      1001  TIP3      OH2            19.6656468814       13.8031032497       32.5105942273  TIP3      937             0.0000000000
     11386      1001  TIP3      H1             18.8086364288       13.9966620183       32.9633214614  TIP3      937             0.0000000000
     11387      1001  TIP3      H2             19.6028672677       14.4591334159       31.7957130250  TIP3      937             0.0000000000
     11388      1002  TIP3      OH2            16.7043471459       12.9004204340       30.4229233781  TIP3      938             0.0000000000
     11389      1002  TIP3      H1             16.6134434281       12.4155066829       31.2696334234  TIP3      938             0.0000000000
     11390      1002  TIP3      H2             17.5176277264       12.5090203126       30.0433184635  TIP3      938             0.0000000000
     11391      1003  TIP3      OH2            18.7765400935       11.6293761746       29.0717408770  TIP3      939             0.0000000000
     11392      1003  TIP3      H1             18.6413723526       10.6966564886       29.3313083043  TIP3      939             0.0000000000
     11393      1003  TIP3      H2             19.6327253450       11.8007880426       29.5081961271  TIP3      939             0.0000000000
     11394      1004  TIP3      OH2            21.3927545974       12.1030237363       29.9596750139  TIP3      940             0.0000000000
     11395      1004  TIP3      H1             21.5034156881       11.1677983183       29.7111981467  TIP3      940             0.0000000000
     11396      1004  TIP3      H2             21.3523019455       12.0664702793       30.9269517258  TIP3      940             0.0000000000
     11397      1005  TIP3      OH2            17.1953266412       -3.6476309667       26.9905088773  TIP3      941             0.0000000000
     11398      1005  TIP3      H1             16.3837554075       -3.7941741511       26.4691615995  TIP3      941             0.0000000000
     11399      1005  TIP3      H2             17.6209188878       -4.5179271298       26.8723827708  TIP3      941             0.0000000000
     11400      1006  TIP3      OH2            15.9321578529       -3.8503011365       22.7006297145  TIP3      942             0.0000000000
     11401      1006  TIP3      H1             16.4131160654       -3.1818772069       22.2204352841  TIP3      942             0.0000000000
     11402      1006  TIP3      H2             15.3665054042       -3.3401747171       23.3135863674  TIP3      942             0.0000000000
     11403      1007  TIP3      OH2            21.4872657806       -3.5331278200       26.8418060108  TIP3      943             0.0000000000
     11404      1007  TIP3      H1             22.4307174489       -3.3976655470       26.6500109851  TIP3      943             0.0000000000
     11405      1007  TIP3      H2             21.5411648754       -3.8717699481       27.7407824936  TIP3      943             0.0000000000
     11406      1008  TIP3      OH2            15.8754151908       12.0807896758       23.6566912738  TIP3      944             0.0000000000
     11407      1008  TIP3      H1             15.0844271529       12.0451655267       23.1144310362  TIP3      944             0.0000000000
     11408      1008  TIP3      H2             15.8680792132       13.0281788273       23.8826364130  TIP3      944             0.0000000000
     11409      1009  TIP3      OH2            22.2422748544       -1.5394836684       23.2337491961  TIP3      945             0.0000000000
     11410      1009  TIP3      H1             22.6930011229       -2.2620601908       23.6905593649  TIP3      945             0.0000000000
     11411      1009  TIP3      H2             22.5988445038       -0.7891553145       23.7121926363  TIP3      945             0.0000000000
     11412      1010  TIP3      OH2            17.0869199228       -3.0965604143       36.3787896394  TIP3      946             0.0000000000
     11413      1010  TIP3      H1             16.6344596381       -3.8678864884       36.7746450844  TIP3      946             0.0000000000
     11414      1010  TIP3      H2             17.9735889478       -3.1758935650       36.8047882209  TIP3      946             0.0000000000
     11415      1011  TIP3      OH2            19.0479064093       -3.7709972337       38.0251229421  TIP3      947             0.0000000000
     11416      1011  TIP3      H1             19.9391698899       -4.0958681573       37.8272970289  TIP3      947             0.0000000000
     11417      1011  TIP3      H2             18.6709694245       -4.5465470769       38.4799965175  TIP3      947             0.0000000000
     11418      1012  TIP3      OH2           -20.2360903001       23.1488781604       31.8919063782  TIP3      948             0.0000000000
     11419      1012  TIP3      H1            -20.1201693227       22.5169374341       32.6172187871  TIP3      948             0.0000000000
     11420      1012  TIP3      H2            -19.6314280527       23.8727759902       32.0851270627  TIP3      948             0.0000000000
     11421      1013  TIP3      OH2           -22.5981826254       21.3841309577       25.6914608274  TIP3      949             0.0000000000
     11422      1013  TIP3      H1            -23.1117580667       22.1761662856       25.8267069640  TIP3      949             0.0000000000
     11423      1013  TIP3      H2            -23.2425808973       20.7273612064       25.4433049964  TIP3      949             0.0000000000
     11424      1014  TIP3      OH2            -5.6397141981       17.6834538454       31.4760682215  TIP3      950             0.0000000000
     11425      1014  TIP3      H1             -5.4708466045       18.2486967214       32.2615531660  TIP3      950             0.0000000000
     11426      1014  TIP3      H2             -5.0401448263       18.1115719111       30.8468892100  TIP3      950             0.0000000000
     11427      1015  TIP3      OH2           -11.0440891469       20.4931989956       31.1174240636  TIP3      951             0.0000000000
     11428      1015  TIP3      H1            -10.8750832261       19.5344276705       31.1048498716  TIP3      951             0.0000000000
     11429      1015  TIP3      H2            -11.1411255075       20.6918339618       30.1708841928  TIP3      951             0.0000000000
     11430      1016  TIP3      OH2           -17.9917588494       18.6069900363       28.3408240632  TIP3      952             0.0000000000
     11431      1016  TIP3      H1            -17.8333705153       19.4199585118       27.8193199814  TIP3      952             0.0000000000
     11432      1016  TIP3      H2            -18.3514631096       18.0327976339       27.6273942426  TIP3      952             0.0000000000
     11433      1017  TIP3      OH2           -10.1985987319       18.6818978149       26.7181617779  TIP3      953             0.0000000000
     11434      1017  TIP3      H1             -9.5490960744       18.3389616169       27.3757821843  TIP3      953             0.0000000000
     11435      1017  TIP3      H2             -9.6178634734       19.2124571236       26.1565264293  TIP3      953             0.0000000000
     11436      1018  TIP3      OH2           -21.2337617367       20.9562994974       28.9596807560  TIP3      954             0.0000000000
     11437      1018  TIP3      H1            -20.6092028183       20.4264207879       29.4817979995  TIP3      954             0.0000000000
     11438      1018  TIP3      H2            -21.1277796516       20.5798917629       28.0737545434  TIP3      954             0.0000000000
     11439      1019  TIP3      OH2           -16.2484376965       22.3008428988       28.4529522027  TIP3      955             0.0000000000
     11440      1019  TIP3      H1            -15.4770105086       21.7590392840       28.6922144834  TIP3      955             0.0000000000
     11441      1019  TIP3      H2            -16.6857143409       21.7713460700       27.7505506552  TIP3      955             0.0000000000
     11442      1020  TIP3      OH2            -5.2553710829       19.0515616168       33.7666315619  TIP3      956             0.0000000000
     11443      1020  TIP3      H1             -5.7759480581       19.8781107890       33.6634802254  TIP3      956             0.0000000000
     11444      1020  TIP3      H2             -5.1825086623       19.0068898643       34.7328013961  TIP3      956             0.0000000000
     11445      1021  TIP3      OH2           -18.9914231069       17.4546456544       32.3445069879  TIP3      957             0.0000000000
     11446      1021  TIP3      H1            -19.2929977270       18.0237094194       31.6095777321  TIP3      957             0.0000000000
     11447      1021  TIP3      H2            -19.6736118888       17.6791553698       33.0232799829  TIP3      957             0.0000000000
     11448      1022  TIP3      OH2            -8.3658576204       18.0188458109       28.6985406684  TIP3      958             0.0000000000
     11449      1022  TIP3      H1             -8.5917369802       17.2490807193       29.2251861132  TIP3      958             0.0000000000
     11450      1022  TIP3      H2             -7.7205451415       18.4756153436       29.2697907641  TIP3      958             0.0000000000
     11451      1023  TIP3      OH2           -19.4956987413       19.3447081635       30.4287207454  TIP3      959             0.0000000000
     11452      1023  TIP3      H1            -18.8339433205       19.9972830240       30.7400421831  TIP3      959             0.0000000000
     11453      1023  TIP3      H2            -18.9996843050       18.9543966343       29.6621693012  TIP3      959             0.0000000000
     11454      1024  TIP3      OH2            -8.0702813593       16.6801970899       32.3411628834  TIP3      960             0.0000000000
     11455      1024  TIP3      H1             -8.7830207843       17.3242756682       32.2215482573  TIP3      960             0.0000000000
     11456      1024  TIP3      H2             -7.3391140681       17.0952275821       31.8358959798  TIP3      960             0.0000000000
     11457      1025  TIP3      OH2           -15.1319082405       14.8330507906       29.8254339203  TIP3      961             0.0000000000
     11458      1025  TIP3      H1            -15.3037526010       13.8746561996       29.7302441806  TIP3      961             0.0000000000
     11459      1025  TIP3      H2            -16.0051428524       15.1557419428       30.1428559766  TIP3      961             0.0000000000
     11460      1026  TIP3      OH2           -12.7665053620       21.8162059330       21.7132782808  TIP3      962             0.0000000000
     11461      1026  TIP3      H1            -11.9525683646       22.2041334209       22.0745428090  TIP3      962             0.0000000000
     11462      1026  TIP3      H2            -12.5098560635       21.5006089078       20.8399250261  TIP3      962             0.0000000000
     11463      1027  TIP3      OH2            -5.7523957859       22.9348202856       32.3572113084  TIP3      963             0.0000000000
     11464      1027  TIP3      H1             -6.1309778373       23.8069558656       32.5043082312  TIP3      963             0.0000000000
     11465      1027  TIP3      H2             -4.9241550788       23.1968898293       31.9201047614  TIP3      963             0.0000000000
     11466      1028  TIP3      OH2            -9.4287502600       22.0384625374       34.3708273778  TIP3      964             0.0000000000
     11467      1028  TIP3      H1             -9.4400273605       22.8874341671       34.8210803818  TIP3      964             0.0000000000
     11468      1028  TIP3      H2            -10.0328952162       22.2451568639       33.6204687511  TIP3      964             0.0000000000
     11469      1029  TIP3      OH2           -17.1334497177      -23.8388005470       31.0099276047  TIP3      965             0.0000000000
     11470      1029  TIP3      H1            -16.9957557969      -23.6607936083       30.0513903375  TIP3      965             0.0000000000
     11471      1029  TIP3      H2            -17.2310924925      -22.9174414075       31.2975150926  TIP3      965             0.0000000000
     11472      1030  TIP3      OH2           -10.5018281034       22.8280924566       22.6328986139  TIP3      966             0.0000000000
     11473      1030  TIP3      H1            -10.1202102166       22.9934999829       23.5058232968  TIP3      966             0.0000000000
     11474      1030  TIP3      H2            -10.1149093194       23.5409427006       22.1145323342  TIP3      966             0.0000000000
     11475      1031  TIP3      OH2            -7.5589742328       20.8617759596       36.5883130909  TIP3      967             0.0000000000
     11476      1031  TIP3      H1             -7.9488823376       21.3301708804       35.8375904815  TIP3      967             0.0000000000
     11477      1031  TIP3      H2             -7.5751842568       19.9375539178       36.2900608291  TIP3      967             0.0000000000
     11478      1032  TIP3      OH2           -17.6811002033       15.7681544796       30.5205792233  TIP3      968             0.0000000000
     11479      1032  TIP3      H1            -18.5931756225       15.5964234953       30.1904534531  TIP3      968             0.0000000000
     11480      1032  TIP3      H2            -17.8613316343       16.5478382321       31.0720826549  TIP3      968             0.0000000000
     11481      1033  TIP3      OH2           -13.0407095980       15.3627425164       33.9061695252  TIP3      969             0.0000000000
     11482      1033  TIP3      H1            -12.6641030314       14.9397706080       34.7016826923  TIP3      969             0.0000000000
     11483      1033  TIP3      H2            -14.0162892320       15.2847101079       34.0580383943  TIP3      969             0.0000000000
     11484      1034  TIP3      OH2            -9.8103037089       19.2891100522       34.8360568132  TIP3      970             0.0000000000
     11485      1034  TIP3      H1            -10.3496467147       19.0466530834       35.6296247538  TIP3      970             0.0000000000
     11486      1034  TIP3      H2            -10.0320258028       20.2058229243       34.6187602286  TIP3      970             0.0000000000
     11487      1035  TIP3      OH2           -17.6436170957       20.5787652350       31.9468364097  TIP3      971             0.0000000000
     11488      1035  TIP3      H1            -18.4254328581       20.7129391794       32.5103360455  TIP3      971             0.0000000000
     11489      1035  TIP3      H2            -17.6054835078       21.4292473387       31.4389877086  TIP3      971             0.0000000000
     11490      1036  TIP3      OH2           -17.6498694547       20.7305634679       26.6916514166  TIP3      972             0.0000000000
     11491      1036  TIP3      H1            -18.6084545478       20.5623219420       26.5267891043  TIP3      972             0.0000000000
     11492      1036  TIP3      H2            -17.3088527128       20.5133307168       25.8042342315  TIP3      972             0.0000000000
     11493      1037  TIP3      OH2           -12.0546467141       21.3712041933       25.4642595193  TIP3      973             0.0000000000
     11494      1037  TIP3      H1            -12.6004696633       22.0874449312       25.1035861733  TIP3      973             0.0000000000
     11495      1037  TIP3      H2            -11.4418853011       21.1165761849       24.7509595911  TIP3      973             0.0000000000
     11496      1038  TIP3      OH2           -12.9838771362       21.5446460975       36.8479183804  TIP3      974             0.0000000000
     11497      1038  TIP3      H1            -13.5713519588       20.8051520926       37.1562167201  TIP3      974             0.0000000000
     11498      1038  TIP3      H2            -12.2088973591       21.3943508046       37.4147324985  TIP3      974             0.0000000000
     11499      1039  TIP3      OH2           -11.1664858993       20.7616756698       28.3133094544  TIP3      975             0.0000000000
     11500      1039  TIP3      H1            -11.4235195381       21.2691296925       27.5261699590  TIP3      975             0.0000000000
     11501      1039  TIP3      H2            -10.9970616110       19.8885996443       27.8968116911  TIP3      975             0.0000000000
     11502      1040  TIP3      OH2           -20.0295856006       21.0192882698       33.5590914032  TIP3      976             0.0000000000
     11503      1040  TIP3      H1            -20.0313351925       21.3264650171       34.4741389360  TIP3      976             0.0000000000
     11504      1040  TIP3      H2            -20.3938363186       20.1187399648       33.6637873041  TIP3      976             0.0000000000
     11505      1041  TIP3      OH2           -22.1067244426       18.1730742552       27.2621676982  TIP3      977             0.0000000000
     11506      1041  TIP3      H1            -22.3828506171       17.9279057998       28.1566309945  TIP3      977             0.0000000000
     11507      1041  TIP3      H2            -22.7232079846       17.6417952309       26.7397105578  TIP3      977             0.0000000000
     11508      1042  TIP3      OH2           -22.0851684225       18.8173785140       23.0976327970  TIP3      978             0.0000000000
     11509      1042  TIP3      H1            -21.5395262565       19.2572329490       22.3938731588  TIP3      978             0.0000000000
     11510      1042  TIP3      H2            -22.7859306085       19.4623420684       23.1081818333  TIP3      978             0.0000000000
     11511      1043  TIP3      OH2           -11.8237578700       22.3316710138       32.9744095814  TIP3      979             0.0000000000
     11512      1043  TIP3      H1            -11.5489338972       21.7675480203       32.2206124187  TIP3      979             0.0000000000
     11513      1043  TIP3      H2            -12.4026816415       21.7387979053       33.4879643322  TIP3      979             0.0000000000
     11514      1044  TIP3      OH2           -15.1069166430       18.3513093910       27.6833078757  TIP3      980             0.0000000000
     11515      1044  TIP3      H1            -16.0316770664       18.3802729264       27.9829328884  TIP3      980             0.0000000000
     11516      1044  TIP3      H2            -14.6316548913       18.2035759960       28.5150263820  TIP3      980             0.0000000000
     11517      1045  TIP3      OH2           -20.1504778556       19.9636658308       26.5079303432  TIP3      981             0.0000000000
     11518      1045  TIP3      H1            -21.0903774601       20.0757604542       26.2659210500  TIP3      981             0.0000000000
     11519      1045  TIP3      H2            -19.9952257562       19.0641658767       26.1701138727  TIP3      981             0.0000000000
     11520      1046  TIP3      OH2           -16.6541158783       20.0085069063       24.2391210306  TIP3      982             0.0000000000
     11521      1046  TIP3      H1            -15.6888966364       20.0736355985       24.3758112580  TIP3      982             0.0000000000
     11522      1046  TIP3      H2            -16.8628596562       20.6322741840       23.5218543228  TIP3      982             0.0000000000
     11523      1047  TIP3      OH2           -10.6772402772       17.6148783361       30.9205366393  TIP3      983             0.0000000000
     11524      1047  TIP3      H1            -11.3532504911       17.6353227487       31.6336306073  TIP3      983             0.0000000000
     11525      1047  TIP3      H2            -11.1918983069       17.3375367826       30.1487523693  TIP3      983             0.0000000000
     11526      1048  TIP3      OH2           -17.9108767116       21.1091420792       21.7408182388  TIP3      984             0.0000000000
     11527      1048  TIP3      H1            -18.4839807110       20.8220482349       21.0302250107  TIP3      984             0.0000000000
     11528      1048  TIP3      H2            -17.1579068113       21.4617678167       21.2657122381  TIP3      984             0.0000000000
     11529      1049  TIP3      OH2           -13.9209324821       21.0813903713       29.5186038404  TIP3      985             0.0000000000
     11530      1049  TIP3      H1            -13.2236613473       20.6075141921       29.0510935522  TIP3      985             0.0000000000
     11531      1049  TIP3      H2            -13.9809141508       20.6124676486       30.3622293038  TIP3      985             0.0000000000
     11532      1050  TIP3      OH2           -18.8479676554       17.2688445770       26.0165944433  TIP3      986             0.0000000000
     11533      1050  TIP3      H1            -19.1509636126       16.3495253473       26.1037671764  TIP3      986             0.0000000000
     11534      1050  TIP3      H2            -18.0266633781       17.1783399996       25.5083275998  TIP3      986             0.0000000000
     11535      1051  TIP3      OH2           -15.1569590844       19.4457248560       31.9970718223  TIP3      987             0.0000000000
     11536      1051  TIP3      H1            -15.9794038726       19.9695521435       32.0704770077  TIP3      987             0.0000000000
     11537      1051  TIP3      H2            -14.5954148852       19.8002711145       32.7060979743  TIP3      987             0.0000000000
     11538      1052  TIP3      OH2           -10.6427671025       18.5219729094       21.8116772579  TIP3      988             0.0000000000
     11539      1052  TIP3      H1            -11.6016511918       18.5924742964       21.8003635498  TIP3      988             0.0000000000
     11540      1052  TIP3      H2            -10.3615759162       19.3417918131       22.2553572644  TIP3      988             0.0000000000
     11541      1053  TIP3      OH2           -10.0343296329       20.4384601121       23.5940044828  TIP3      989             0.0000000000
     11542      1053  TIP3      H1             -9.1279915449       20.2049220097       23.9036156179  TIP3      989             0.0000000000
     11543      1053  TIP3      H2             -9.9055169879       21.2312582319       23.0424991000  TIP3      989             0.0000000000
     11544      1054  TIP3      OH2           -15.5713804673       22.0389600107       37.3295961503  TIP3      990             0.0000000000
     11545      1054  TIP3      H1            -15.8758920082       22.2265223213       36.4276943882  TIP3      990             0.0000000000
     11546      1054  TIP3      H2            -14.6449080578       22.3610229787       37.3549325385  TIP3      990             0.0000000000
     11547      1055  TIP3      OH2            -5.2069991413       20.6482776808       23.3476986292  TIP3      991             0.0000000000
     11548      1055  TIP3      H1             -5.7283934682       20.3091971151       22.5924108530  TIP3      991             0.0000000000
     11549      1055  TIP3      H2             -5.1156044077       21.5788360356       23.0737269112  TIP3      991             0.0000000000
     11550      1056  TIP3      OH2           -21.1945769638      -23.5616603532       22.8451092263  TIP3      992             0.0000000000
     11551      1056  TIP3      H1            -20.5084106418      -23.0794711230       22.3720775563  TIP3      992             0.0000000000
     11552      1056  TIP3      H2            -21.9158809049      -23.2237604099       22.3166811104  TIP3      992             0.0000000000
     11553      1057  TIP3      OH2           -20.8024791266       18.1928344450       34.2242074375  TIP3      993             0.0000000000
     11554      1057  TIP3      H1            -21.6883025521       18.5739219673       34.4062961446  TIP3      993             0.0000000000
     11555      1057  TIP3      H2            -20.8820340525       17.3935231597       34.7712099197  TIP3      993             0.0000000000
     11556      1058  TIP3      OH2           -12.1027652889       17.9568949533       33.3090093718  TIP3      994             0.0000000000
     11557      1058  TIP3      H1            -11.3933954287       18.0841885304       33.9445566878  TIP3      994             0.0000000000
     11558      1058  TIP3      H2            -12.4606780276       17.0786852888       33.5437022184  TIP3      994             0.0000000000
     11559      1059  TIP3      OH2           -11.3091223383       17.5394691122       24.4013224114  TIP3      995             0.0000000000
     11560      1059  TIP3      H1            -11.0818069347       17.9625953954       23.5627312143  TIP3      995             0.0000000000
     11561      1059  TIP3      H2            -10.7536191748       18.0057823339       25.0459389754  TIP3      995             0.0000000000
     11562      1060  TIP3      OH2           -14.1302448539       19.2983261873       25.1297728499  TIP3      996             0.0000000000
     11563      1060  TIP3      H1            -13.3780627865       19.8978341171       25.2246177014  TIP3      996             0.0000000000
     11564      1060  TIP3      H2            -14.4419888424       19.1503867994       26.0424206603  TIP3      996             0.0000000000
     11565      1061  TIP3      OH2           -13.5552968916       20.3515571437       34.4366039823  TIP3      997             0.0000000000
     11566      1061  TIP3      H1            -13.4914387320       20.8396571675       35.2755327223  TIP3      997             0.0000000000
     11567      1061  TIP3      H2            -12.9217952512       19.6208692286       34.5030224472  TIP3      997             0.0000000000
     11568      1062  TIP3      OH2           -13.2553166399       16.3090866319       26.0289880802  TIP3      998             0.0000000000
     11569      1062  TIP3      H1            -13.6462932841       16.9780203555       26.6157037936  TIP3      998             0.0000000000
     11570      1062  TIP3      H2            -12.5876531755       16.8796816842       25.5756414826  TIP3      998             0.0000000000
     11571      1063  TIP3      OH2            -7.4318184980       18.1407030223       35.2262553728  TIP3      999             0.0000000000
     11572      1063  TIP3      H1             -8.3528712702       18.4618933005       35.0955637443  TIP3      999             0.0000000000
     11573      1063  TIP3      H2             -7.1056484023       18.1619647776       34.3112973584  TIP3      999             0.0000000000
     11574      1064  TIP3      OH2            -8.7953979994       21.7863220610       29.1025969572  TIP3      1000            0.0000000000
     11575      1064  TIP3      H1             -9.6915424595       21.4302797571       29.0187174446  TIP3      1000            0.0000000000
     11576      1064  TIP3      H2             -8.3794810988       21.1852529229       29.7566313220  TIP3      1000            0.0000000000
     11577      1065  TIP3      OH2           -21.1520616052       20.3443701411       21.2940442988  TIP3      1001            0.0000000000
     11578      1065  TIP3      H1            -21.1127312766       21.3087037950       21.3075750294  TIP3      1001            0.0000000000
     11579      1065  TIP3      H2            -21.8632143851       20.1423961787       20.6543568838  TIP3      1001            0.0000000000
     11580      1066  TIP3      OH2           -20.1976539022       15.3180021626       29.7340815087  TIP3      1002            0.0000000000
     11581      1066  TIP3      H1            -20.3700297916       15.3776614531       28.7646825024  TIP3      1002            0.0000000000
     11582      1066  TIP3      H2            -20.6804048649       14.4887522997       29.9259182791  TIP3      1002            0.0000000000
     11583      1067  TIP3      OH2           -21.4455693103       22.6574570386       37.4525876254  TIP3      1003            0.0000000000
     11584      1067  TIP3      H1            -20.8000509592       21.9361492702       37.4953560267  TIP3      1003            0.0000000000
     11585      1067  TIP3      H2            -21.4927139489       22.9209437179       38.4028329945  TIP3      1003            0.0000000000
     11586      1068  TIP3      OH2           -17.2604172979       21.9917828664       34.9854482376  TIP3      1004            0.0000000000
     11587      1068  TIP3      H1            -17.9962040184       22.5972256707       35.1159459145  TIP3      1004            0.0000000000
     11588      1068  TIP3      H2            -16.9852074409       22.1385164062       34.0649926324  TIP3      1004            0.0000000000
     11589      1069  TIP3      OH2           -16.9188843614       19.1811400162       35.8872955705  TIP3      1005            0.0000000000
     11590      1069  TIP3      H1            -16.8283706255       18.4676947856       35.2267207976  TIP3      1005            0.0000000000
     11591      1069  TIP3      H2            -17.0045547885       19.9871775171       35.3533479802  TIP3      1005            0.0000000000
     11592      1070  TIP3      OH2           -16.5110270934       17.5602986375       33.4520348624  TIP3      1006            0.0000000000
     11593      1070  TIP3      H1            -15.9945980376       18.0607578330       32.7761511499  TIP3      1006            0.0000000000
     11594      1070  TIP3      H2            -17.4181858489       17.6068006544       33.0713549110  TIP3      1006            0.0000000000
     11595      1071  TIP3      OH2           -14.7288163742      -24.0462009618       33.5181540662  TIP3      1007            0.0000000000
     11596      1071  TIP3      H1            -13.9190686386      -24.0444131674       32.9865564659  TIP3      1007            0.0000000000
     11597      1071  TIP3      H2            -15.1018953871      -23.1983757170       33.2872141929  TIP3      1007            0.0000000000
     11598      1072  TIP3      OH2           -10.5770176893       20.8550060959       38.6605756179  TIP3      1008            0.0000000000
     11599      1072  TIP3      H1            -10.4316437502       19.9040974654       38.5421884623  TIP3      1008            0.0000000000
     11600      1072  TIP3      H2             -9.6648633201       21.1840157996       38.6361228037  TIP3      1008            0.0000000000
     11601      1073  TIP3      OH2           -18.5718295412       20.5740862941       37.7800423395  TIP3      1009            0.0000000000
     11602      1073  TIP3      H1            -19.2356063184       19.8507658261       37.7035982950  TIP3      1009            0.0000000000
     11603      1073  TIP3      H2            -17.8408206119       20.2073793286       37.2396283600  TIP3      1009            0.0000000000
     11604      1074  TIP3      OH2           -15.7220028654       15.0634315621       33.8365331203  TIP3      1010            0.0000000000
     11605      1074  TIP3      H1            -15.9483905668       16.0229396226       33.7450279573  TIP3      1010            0.0000000000
     11606      1074  TIP3      H2            -16.4673236044       14.6790255569       33.3383223919  TIP3      1010            0.0000000000
     11607      1075  TIP3      OH2           -14.4170029788       19.3659350346       37.4897517771  TIP3      1011            0.0000000000
     11608      1075  TIP3      H1            -14.7918259475       19.2056112397       38.3773643509  TIP3      1011            0.0000000000
     11609      1075  TIP3      H2            -15.2015171613       19.1718538610       36.9526400920  TIP3      1011            0.0000000000
     11610      1076  TIP3      OH2           -11.7198695082       18.5921248203       36.6357684739  TIP3      1012            0.0000000000
     11611      1076  TIP3      H1            -12.6886826237       18.6385431056       36.7121039669  TIP3      1012            0.0000000000
     11612      1076  TIP3      H2            -11.5052392754       17.9272488979       37.3201294617  TIP3      1012            0.0000000000
     11613      1077  TIP3      OH2           -10.1975499244       17.1747972009       38.4623968709  TIP3      1013            0.0000000000
     11614      1077  TIP3      H1            -10.2048341826       16.1943874129       38.5040861865  TIP3      1013            0.0000000000
     11615      1077  TIP3      H2            -10.3897497591       17.4661884487       39.3754601301  TIP3      1013            0.0000000000
     11616      1078  TIP3      OH2           -20.2047879866       18.4456229359       37.6614528214  TIP3      1014            0.0000000000
     11617      1078  TIP3      H1            -20.1441696098       17.7035155449       37.0323514651  TIP3      1014            0.0000000000
     11618      1078  TIP3      H2            -20.4732942691       17.9742810449       38.4756914981  TIP3      1014            0.0000000000
     11619      1079  TIP3      OH2           -15.5211311011       14.4936847061       36.5492376191  TIP3      1015            0.0000000000
     11620      1079  TIP3      H1            -14.8559940355       13.7777045329       36.5526818404  TIP3      1015            0.0000000000
     11621      1079  TIP3      H2            -15.6477960845       14.5862800688       35.5827907287  TIP3      1015            0.0000000000
     11622      1080  TIP3      OH2           -15.1677813173       16.0742699677       38.7089978165  TIP3      1016            0.0000000000
     11623      1080  TIP3      H1            -15.3535932224       15.5568297914       37.8887255902  TIP3      1016            0.0000000000
     11624      1080  TIP3      H2            -15.7527591421       16.8533451117       38.5974969691  TIP3      1016            0.0000000000
     11625      1081  TIP3      OH2            -6.7849482994       20.6556385976       20.9700891504  TIP3      1017            0.0000000000
     11626      1081  TIP3      H1             -6.5715022384       21.3352977366       20.3238450095  TIP3      1017            0.0000000000
     11627      1081  TIP3      H2             -6.7315774568       19.8439778748       20.4697570790  TIP3      1017            0.0000000000
     11628      1082  TIP3      OH2            -7.4826362963       22.0586155498       26.5410805711  TIP3      1018            0.0000000000
     11629      1082  TIP3      H1             -7.6451242682       21.1037101051       26.5209792267  TIP3      1018            0.0000000000
     11630      1082  TIP3      H2             -7.7517901655       22.2801031301       27.4454904004  TIP3      1018            0.0000000000
     11631      1083  TIP3      OH2            -5.1288384068       21.9674255002       36.9696241746  TIP3      1019            0.0000000000
     11632      1083  TIP3      H1             -5.9902348441       21.5557881369       36.7967150521  TIP3      1019            0.0000000000
     11633      1083  TIP3      H2             -4.5427097889       21.2022829968       36.8209382088  TIP3      1019            0.0000000000
     11634      1084  TIP3      OH2            -7.8081837699       19.7016642707       25.0795449195  TIP3      1020            0.0000000000
     11635      1084  TIP3      H1             -7.5531096665       18.7469534173       25.1389079960  TIP3      1020            0.0000000000
     11636      1084  TIP3      H2             -6.9958179317       20.0435407730       24.6700543499  TIP3      1020            0.0000000000
     11637      1085  TIP3      OH2            -7.1511513220       20.1082381195       30.5412378827  TIP3      1021            0.0000000000
     11638      1085  TIP3      H1             -6.2138907818       20.4026797236       30.4725339154  TIP3      1021            0.0000000000
     11639      1085  TIP3      H2             -7.3648980607       20.4046505909       31.4326867497  TIP3      1021            0.0000000000
     11640      1086  TIP3      OH2            -7.1285504123       20.9382406600       33.4288981346  TIP3      1022            0.0000000000
     11641      1086  TIP3      H1             -8.0467117122       21.2354072657       33.5919976273  TIP3      1022            0.0000000000
     11642      1086  TIP3      H2             -6.6965271152       21.7140739291       32.9817031579  TIP3      1022            0.0000000000
     11643      1087  TIP3      OH2           -22.3247042839       19.1931719311       36.1129160793  TIP3      1023            0.0000000000
     11644      1087  TIP3      H1            -21.6730822301       19.3737168697       36.8180391038  TIP3      1023            0.0000000000
     11645      1087  TIP3      H2            -23.0260135550       18.8921867718       36.7234193691  TIP3      1023            0.0000000000
     11646      1088  TIP3      OH2            -4.8184930651       15.0211149683       38.6063803815  TIP3      1024            0.0000000000
     11647      1088  TIP3      H1             -4.4715765093       14.3470274521       37.9981579339  TIP3      1024            0.0000000000
     11648      1088  TIP3      H2             -4.7646716987       15.8165624845       38.0368359946  TIP3      1024            0.0000000000
     11649      1089  TIP3      OH2            -7.1869073132       16.9747382827       25.1050226040  TIP3      1025            0.0000000000
     11650      1089  TIP3      H1             -6.9114304225       16.5501397864       25.9460361629  TIP3      1025            0.0000000000
     11651      1089  TIP3      H2             -7.7355125389       16.2883809788       24.6622245819  TIP3      1025            0.0000000000
     11652      1090  TIP3      OH2           -21.7400964614       17.7269031933       29.8951917762  TIP3      1026            0.0000000000
     11653      1090  TIP3      H1            -21.2228125235       16.9055261440       29.9744631872  TIP3      1026            0.0000000000
     11654      1090  TIP3      H2            -21.0810624724       18.4099003770       30.0706834746  TIP3      1026            0.0000000000
     11655      1091  TIP3      OH2           -23.4326873669       21.0335374832       30.4378592028  TIP3      1027            0.0000000000
     11656      1091  TIP3      H1            -22.7752616669       20.5073796713       29.9424768245  TIP3      1027            0.0000000000
     11657      1091  TIP3      H2            -22.8270590963       21.6083381182       30.9177316912  TIP3      1027            0.0000000000
     11658      1092  TIP3      OH2            -5.3197529072       17.1146895378       36.9653812278  TIP3      1028            0.0000000000
     11659      1092  TIP3      H1             -6.2508009323       17.4113216041       36.9237019159  TIP3      1028            0.0000000000
     11660      1092  TIP3      H2             -5.3214878929       16.5544345627       36.1737254520  TIP3      1028            0.0000000000
     11661      1093  TIP3      OH2           -22.6614334927       16.8476599953       25.0088936848  TIP3      1029            0.0000000000
     11662      1093  TIP3      H1            -23.5776559155       17.1346278207       25.0828801417  TIP3      1029            0.0000000000
     11663      1093  TIP3      H2            -22.3063766308       17.4176862695       24.2881105784  TIP3      1029            0.0000000000
     11664      1094  TIP3      OH2            23.9287222617       15.7547915763       32.9691830337  TIP3      1030            0.0000000000
     11665      1094  TIP3      H1             23.2759059891       15.4286188736       33.6185487136  TIP3      1030            0.0000000000
     11666      1094  TIP3      H2             23.3831736408       16.3713718167       32.4609831745  TIP3      1030            0.0000000000
     11667      1095  TIP3      OH2            -6.2909433466       15.1692878800       34.8561372737  TIP3      1031            0.0000000000
     11668      1095  TIP3      H1             -7.1065260728       15.4900730620       34.4345600856  TIP3      1031            0.0000000000
     11669      1095  TIP3      H2             -6.1355352174       14.3386752305       34.3471689197  TIP3      1031            0.0000000000
     11670      1096  TIP3      OH2           -12.8918085034       16.6198927731       29.0953251429  TIP3      1032            0.0000000000
     11671      1096  TIP3      H1            -13.5893260508       15.9998797412       29.3712427634  TIP3      1032            0.0000000000
     11672      1096  TIP3      H2            -12.3581867452       16.0632164739       28.5195614020  TIP3      1032            0.0000000000
     11673      1097  TIP3      OH2            -7.7594840830       14.6248388853       29.1325154259  TIP3      1033            0.0000000000
     11674      1097  TIP3      H1             -7.1644979477       15.2484822649       28.6488907128  TIP3      1033            0.0000000000
     11675      1097  TIP3      H2             -8.6504888033       14.9917757906       28.9262679240  TIP3      1033            0.0000000000
     11676      1098  TIP3      OH2            -6.1116060268       15.9449033961       27.4065492491  TIP3      1034            0.0000000000
     11677      1098  TIP3      H1             -5.4257947512       15.3491604103       27.0184123235  TIP3      1034            0.0000000000
     11678      1098  TIP3      H2             -5.5823016107       16.7549831545       27.5897312491  TIP3      1034            0.0000000000
     11679      1099  TIP3      OH2           -20.5113465911       15.1756910493       27.0147529462  TIP3      1035            0.0000000000
     11680      1099  TIP3      H1            -21.2974659731       15.0522533254       26.4564360288  TIP3      1035            0.0000000000
     11681      1099  TIP3      H2            -20.0546558481       14.3179729697       26.8871990197  TIP3      1035            0.0000000000
     11682      1100  TIP3      OH2           -21.7207276303       14.9955662468       22.7101897916  TIP3      1036            0.0000000000
     11683      1100  TIP3      H1            -21.2967209011       15.6657340756       22.1355915019  TIP3      1036            0.0000000000
     11684      1100  TIP3      H2            -22.2653617283       15.5435631271       23.2907214906  TIP3      1036            0.0000000000
     11685      1101  TIP3      OH2           -16.1114807895       15.1060429428       26.7435710926  TIP3      1037            0.0000000000
     11686      1101  TIP3      H1            -15.2281874263       15.4982058950       26.6138920828  TIP3      1037            0.0000000000
     11687      1101  TIP3      H2            -16.0951142872       14.9442453006       27.6887388220  TIP3      1037            0.0000000000
     11688      1102  TIP3      OH2           -10.3344556305       15.1681193015       28.3570766914  TIP3      1038            0.0000000000
     11689      1102  TIP3      H1            -10.4542104704       15.3086816234       27.4066421802  TIP3      1038            0.0000000000
     11690      1102  TIP3      H2            -10.7460304073       14.2819709812       28.5011966979  TIP3      1038            0.0000000000
     11691      1103  TIP3      OH2            -9.0684452948       15.1846073120       24.0839591667  TIP3      1039            0.0000000000
     11692      1103  TIP3      H1             -9.7903832390       15.7711541322       23.8335412994  TIP3      1039            0.0000000000
     11693      1103  TIP3      H2             -9.5376975356       14.3421928506       24.2496969187  TIP3      1039            0.0000000000
     11694      1104  TIP3      OH2           -19.9552537882       16.7995497857       21.2871771337  TIP3      1040            0.0000000000
     11695      1104  TIP3      H1            -19.4562344584       16.3066211789       20.6374731483  TIP3      1040            0.0000000000
     11696      1104  TIP3      H2            -19.3144550515       17.3224337209       21.7770111842  TIP3      1040            0.0000000000
     11697      1105  TIP3      OH2           -20.6991707957       15.8054263154       36.4532534715  TIP3      1041            0.0000000000
     11698      1105  TIP3      H1            -21.0850001539       14.9988455198       36.8271018124  TIP3      1041            0.0000000000
     11699      1105  TIP3      H2            -19.7835740644       15.7322819985       36.8111316364  TIP3      1041            0.0000000000
     11700      1106  TIP3      OH2           -18.6535642297       15.1626942514       38.0792342610  TIP3      1042            0.0000000000
     11701      1106  TIP3      H1            -17.7720222019       14.8057588044       37.8636038541  TIP3      1042            0.0000000000
     11702      1106  TIP3      H2            -19.0649886784       14.3639557838       38.4611106131  TIP3      1042            0.0000000000
     11703      1107  TIP3      OH2           -10.2564229512       14.4372247972       38.2220214985  TIP3      1043            0.0000000000
     11704      1107  TIP3      H1            -10.1731726524       13.9575087878       39.0700174175  TIP3      1043            0.0000000000
     11705      1107  TIP3      H2             -9.3382731068       14.3986701343       37.8818839720  TIP3      1043            0.0000000000
     11706      1108  TIP3      OH2            -1.2932113382       23.1230860342       31.8359999854  TIP3      1044            0.0000000000
     11707      1108  TIP3      H1             -1.3513700071       22.5707791930       32.6277756093  TIP3      1044            0.0000000000
     11708      1108  TIP3      H2             -0.7663022594       23.8768618992       32.1257624026  TIP3      1044            0.0000000000
     11709      1109  TIP3      OH2            -3.7588346582       21.4004305719       25.7596140741  TIP3      1045            0.0000000000
     11710      1109  TIP3      H1             -4.2969970998       22.1987914717       25.8191986329  TIP3      1045            0.0000000000
     11711      1109  TIP3      H2             -4.3900273247       20.7935722701       25.3481346680  TIP3      1045            0.0000000000
     11712      1110  TIP3      OH2            13.2188481505       17.6791617107       31.4775922839  TIP3      1046            0.0000000000
     11713      1110  TIP3      H1             13.3802634763       18.2447907429       32.2637971196  TIP3      1046            0.0000000000
     11714      1110  TIP3      H2             13.8163198054       18.1113904672       30.8485962693  TIP3      1046            0.0000000000
     11715      1111  TIP3      OH2             7.8244968010       20.4979916704       31.1080122259  TIP3      1047            0.0000000000
     11716      1111  TIP3      H1              7.9816708932       19.5382536443       31.1028900317  TIP3      1047            0.0000000000
     11717      1111  TIP3      H2              7.7070585702       20.6921338606       30.1618523409  TIP3      1047            0.0000000000
     11718      1112  TIP3      OH2             0.8869935626       18.5847548590       28.3011388582  TIP3      1048            0.0000000000
     11719      1112  TIP3      H1              1.0274547301       19.4364908020       27.8357617868  TIP3      1048            0.0000000000
     11720      1112  TIP3      H2              0.5122436015       18.0314310915       27.5973982066  TIP3      1048            0.0000000000
     11721      1113  TIP3      OH2             8.6664452368       18.6496379039       26.6926768317  TIP3      1049            0.0000000000
     11722      1113  TIP3      H1              9.3041983927       18.3386309594       27.3774478871  TIP3      1049            0.0000000000
     11723      1113  TIP3      H2              9.2290388221       19.2468961395       26.1784847310  TIP3      1049            0.0000000000
     11724      1114  TIP3      OH2            -2.4782496647       20.9565767733       29.0197261835  TIP3      1050            0.0000000000
     11725      1114  TIP3      H1             -1.7991049637       20.4529604306       29.5075660711  TIP3      1050            0.0000000000
     11726      1114  TIP3      H2             -2.3420375852       20.6544873090       28.1173338376  TIP3      1050            0.0000000000
     11727      1115  TIP3      OH2             2.6209403475       22.3217946180       28.4294227658  TIP3      1051            0.0000000000
     11728      1115  TIP3      H1              3.3659102654       21.7571012602       28.7016923472  TIP3      1051            0.0000000000
     11729      1115  TIP3      H2              2.1514131547       21.7696324881       27.7728242383  TIP3      1051            0.0000000000
     11730      1116  TIP3      OH2            13.6001744144       19.0550081771       33.7747100513  TIP3      1052            0.0000000000
     11731      1116  TIP3      H1             13.0773155046       19.8798691273       33.6672622095  TIP3      1052            0.0000000000
     11732      1116  TIP3      H2             13.6721060976       19.0081734867       34.7392862306  TIP3      1052            0.0000000000
     11733      1117  TIP3      OH2            -0.1865292847       17.4265190263       32.3443744845  TIP3      1053            0.0000000000
     11734      1117  TIP3      H1             -0.4504608006       18.0245477700       31.6139135013  TIP3      1053            0.0000000000
     11735      1117  TIP3      H2             -0.8317686304       17.6963884320       33.0420561957  TIP3      1053            0.0000000000
     11736      1118  TIP3      OH2            10.4911452752       18.0178946979       28.6968744385  TIP3      1054            0.0000000000
     11737      1118  TIP3      H1             10.2602194949       17.2507696667       29.2249135101  TIP3      1054            0.0000000000
     11738      1118  TIP3      H2             11.1333758418       18.4739086827       29.2733077590  TIP3      1054            0.0000000000
     11739      1119  TIP3      OH2            -0.6027017995       19.3306359768       30.3834089494  TIP3      1055            0.0000000000
     11740      1119  TIP3      H1              0.0340817257       19.9967622420       30.7191588358  TIP3      1055            0.0000000000
     11741      1119  TIP3      H2             -0.0893287568       18.9461330664       29.6279348620  TIP3      1055            0.0000000000
     11742      1120  TIP3      OH2            10.7879463405       16.6837382759       32.3440836392  TIP3      1056            0.0000000000
     11743      1120  TIP3      H1             10.0733473944       17.3251600274       32.2217174179  TIP3      1056            0.0000000000
     11744      1120  TIP3      H2             11.5177181128       17.0959149302       31.8345472405  TIP3      1056            0.0000000000
     11745      1121  TIP3      OH2             3.7184822397       14.8316880040       29.8024510589  TIP3      1057            0.0000000000
     11746      1121  TIP3      H1              3.5522288267       13.8724869494       29.7328781018  TIP3      1057            0.0000000000
     11747      1121  TIP3      H2              2.8518098988       15.1562490724       30.1368041904  TIP3      1057            0.0000000000
     11748      1122  TIP3      OH2            13.1130049324       22.9424667433       32.3919000950  TIP3      1058            0.0000000000
     11749      1122  TIP3      H1             12.7152937214       23.8096696331       32.4970129069  TIP3      1058            0.0000000000
     11750      1122  TIP3      H2             13.9253934275       23.1922694984       31.9220843593  TIP3      1058            0.0000000000
     11751      1123  TIP3      OH2             9.4345612588       22.0386989338       34.3749616599  TIP3      1059            0.0000000000
     11752      1123  TIP3      H1              9.4020081508       22.8938707851       34.8020581942  TIP3      1059            0.0000000000
     11753      1123  TIP3      H2              8.8283784238       22.2299901976       33.6187952507  TIP3      1059            0.0000000000
     11754      1124  TIP3      OH2             1.7343042762      -23.8301322027       31.0068433416  TIP3      1060            0.0000000000
     11755      1124  TIP3      H1              1.8578080976      -23.6450752944       30.0474083518  TIP3      1060            0.0000000000
     11756      1124  TIP3      H2              1.6262037661      -22.9138508530       31.2996322407  TIP3      1060            0.0000000000
     11757      1125  TIP3      OH2             8.2223415955       22.9289340860       22.7529256729  TIP3      1061            0.0000000000
     11758      1125  TIP3      H1              8.8032184663       22.9539708206       23.5173474890  TIP3      1061            0.0000000000
     11759      1125  TIP3      H2              8.7305542399       23.3373641183       22.0479806048  TIP3      1061            0.0000000000
     11760      1126  TIP3      OH2            12.1259070182       14.7447743343       22.8744450896  TIP3      1062            0.0000000000
     11761      1126  TIP3      H1             11.1786689050       14.8867838546       23.0813917991  TIP3      1062            0.0000000000
     11762      1126  TIP3      H2             12.3417209971       15.5442716390       22.3764036016  TIP3      1062            0.0000000000
     11763      1127  TIP3      OH2            11.2776345923       20.8971906144       36.5824742187  TIP3      1063            0.0000000000
     11764      1127  TIP3      H1             10.8832162985       21.3282159177       35.8124465251  TIP3      1063            0.0000000000
     11765      1127  TIP3      H2             11.2848004971       19.9622041249       36.3038650205  TIP3      1063            0.0000000000
     11766      1128  TIP3      OH2             1.1600691841       15.7546693884       30.5315789607  TIP3      1064            0.0000000000
     11767      1128  TIP3      H1              0.2490405705       15.5939917695       30.2021383676  TIP3      1064            0.0000000000
     11768      1128  TIP3      H2              0.9974025792       16.5442554022       31.0738979520  TIP3      1064            0.0000000000
     11769      1129  TIP3      OH2             5.8115452524       15.3643599939       33.9105380314  TIP3      1065            0.0000000000
     11770      1129  TIP3      H1              6.1900506160       14.9391964994       34.7034562683  TIP3      1065            0.0000000000
     11771      1129  TIP3      H2              4.8365615054       15.2840263828       34.0584677002  TIP3      1065            0.0000000000
     11772      1130  TIP3      OH2             9.0302532693       19.2725906648       34.8181621095  TIP3      1066            0.0000000000
     11773      1130  TIP3      H1              8.5066371907       19.0426977271       35.6258405612  TIP3      1066            0.0000000000
     11774      1130  TIP3      H2              8.8270144810       20.1987657029       34.6159925734  TIP3      1066            0.0000000000
     11775      1131  TIP3      OH2             1.2286414727       20.5726448635       31.9344460348  TIP3      1067            0.0000000000
     11776      1131  TIP3      H1              0.4436907398       20.7011032354       32.4927790571  TIP3      1067            0.0000000000
     11777      1131  TIP3      H2              1.2524208715       21.4329311086       31.4495056798  TIP3      1067            0.0000000000
     11778      1132  TIP3      OH2             1.1763626050       20.7203021957       26.6919436983  TIP3      1068            0.0000000000
     11779      1132  TIP3      H1              0.2274355882       20.5619579956       26.4924132053  TIP3      1068            0.0000000000
     11780      1132  TIP3      H2              1.6028033092       20.5095703933       25.8376580998  TIP3      1068            0.0000000000
     11781      1133  TIP3      OH2             6.8646288101       21.4194691133       25.4805820255  TIP3      1069            0.0000000000
     11782      1133  TIP3      H1              6.2315771814       22.0266940748       25.0664680067  TIP3      1069            0.0000000000
     11783      1133  TIP3      H2              7.3821464867       21.0628013745       24.7284928951  TIP3      1069            0.0000000000
     11784      1134  TIP3      OH2             5.8825774709       21.5436580481       36.8544316407  TIP3      1070            0.0000000000
     11785      1134  TIP3      H1              5.2838358435       20.8099313478       37.1557589417  TIP3      1070            0.0000000000
     11786      1134  TIP3      H2              6.6570517139       21.3745010640       37.4183228309  TIP3      1070            0.0000000000
     11787      1135  TIP3      OH2             7.6869416258       20.7570796914       28.3142905878  TIP3      1071            0.0000000000
     11788      1135  TIP3      H1              7.4499376573       21.2675304187       27.5199026144  TIP3      1071            0.0000000000
     11789      1135  TIP3      H2              7.8657433874       19.8944828280       27.8874255216  TIP3      1071            0.0000000000
     11790      1136  TIP3      OH2            -1.1560893968       21.0088282144       33.5373474343  TIP3      1072            0.0000000000
     11791      1136  TIP3      H1             -1.1187853819       21.3575617672       34.4377886981  TIP3      1072            0.0000000000
     11792      1136  TIP3      H2             -1.5652505663       20.1382050361       33.6762681102  TIP3      1072            0.0000000000
     11793      1137  TIP3      OH2            -4.4393180574       18.0267446846       27.4912629813  TIP3      1073            0.0000000000
     11794      1137  TIP3      H1             -3.7702975315       17.9908899608       28.2050498723  TIP3      1073            0.0000000000
     11795      1137  TIP3      H2             -4.0141501555       17.6668676759       26.6986803396  TIP3      1073            0.0000000000
     11796      1138  TIP3      OH2            -3.4127719375       18.8271726255       22.8169101323  TIP3      1074            0.0000000000
     11797      1138  TIP3      H1             -2.9228885967       19.4383796948       22.2223552996  TIP3      1074            0.0000000000
     11798      1138  TIP3      H2             -4.0795446547       19.4608127633       23.1590343231  TIP3      1074            0.0000000000
     11799      1139  TIP3      OH2             7.0349614220       22.3210336812       32.9767168280  TIP3      1075            0.0000000000
     11800      1139  TIP3      H1              7.3053299229       21.7607496274       32.2201960747  TIP3      1075            0.0000000000
     11801      1139  TIP3      H2              6.4530797406       21.7346057700       33.4927754678  TIP3      1075            0.0000000000
     11802      1140  TIP3      OH2             3.7506981304       18.3640000340       27.7102878281  TIP3      1076            0.0000000000
     11803      1140  TIP3      H1              2.8108880212       18.3743211201       27.9941432061  TIP3      1076            0.0000000000
     11804      1140  TIP3      H2              4.2222214879       18.2076945696       28.5443085024  TIP3      1076            0.0000000000
     11805      1141  TIP3      OH2            -1.3747358002       19.8847853586       26.5177596589  TIP3      1077            0.0000000000
     11806      1141  TIP3      H1             -2.2932431557       20.0809442023       26.2358801305  TIP3      1077            0.0000000000
     11807      1141  TIP3      H2             -1.2097931322       18.9805359309       26.2184584248  TIP3      1077            0.0000000000
     11808      1142  TIP3      OH2             2.1640946431       20.0329630179       24.2332058908  TIP3      1078            0.0000000000
     11809      1142  TIP3      H1              3.1314224810       20.0049942074       24.3599373737  TIP3      1078            0.0000000000
     11810      1142  TIP3      H2              2.0792462401       20.6748900702       23.5127827102  TIP3      1078            0.0000000000
     11811      1143  TIP3      OH2             8.1741101945       17.6134674589       30.9205749743  TIP3      1079            0.0000000000
     11812      1143  TIP3      H1              7.5017801275       17.6379448391       31.6368011035  TIP3      1079            0.0000000000
     11813      1143  TIP3      H2              7.6569570924       17.3374942826       30.1508036039  TIP3      1079            0.0000000000
     11814      1144  TIP3      OH2             4.9401684919       21.0747996304       29.5254042585  TIP3      1080            0.0000000000
     11815      1144  TIP3      H1              5.6491545316       20.6127810051       29.0663569051  TIP3      1080            0.0000000000
     11816      1144  TIP3      H2              4.8865229931       20.5996686376       30.3655665666  TIP3      1080            0.0000000000
     11817      1145  TIP3      OH2            -0.0226876363       17.2582578323       25.8179977106  TIP3      1081            0.0000000000
     11818      1145  TIP3      H1             -0.2277494151       16.3381574501       26.0881114390  TIP3      1081            0.0000000000
     11819      1145  TIP3      H2              0.8990769041       17.1475108717       25.5279838763  TIP3      1081            0.0000000000
     11820      1146  TIP3      OH2             3.6947593528       19.4519595371       31.9833385415  TIP3      1082            0.0000000000
     11821      1146  TIP3      H1              2.8740802131       19.9745922096       32.0636115070  TIP3      1082            0.0000000000
     11822      1146  TIP3      H2              4.2564409726       19.7995305557       32.6986374996  TIP3      1082            0.0000000000
     11823      1147  TIP3      OH2             8.8090361148       20.4344268291       23.6307048934  TIP3      1083            0.0000000000
     11824      1147  TIP3      H1              9.7268297877       20.2221585113       23.8902930593  TIP3      1083            0.0000000000
     11825      1147  TIP3      H2              8.8915033934       21.1124475400       22.9400933743  TIP3      1083            0.0000000000
     11826      1148  TIP3      OH2             3.2763036665       22.0009458845       37.3188874823  TIP3      1084            0.0000000000
     11827      1148  TIP3      H1              2.9519139508       22.3104154575       36.4611389938  TIP3      1084            0.0000000000
     11828      1148  TIP3      H2              4.1796301035       22.3663154113       37.3836523386  TIP3      1084            0.0000000000
     11829      1149  TIP3      OH2            -1.9586885725       18.2136831075       34.2976292205  TIP3      1085            0.0000000000
     11830      1149  TIP3      H1             -2.8710938098       18.5433085529       34.2900352429  TIP3      1085            0.0000000000
     11831      1149  TIP3      H2             -2.0704011969       17.3890772170       34.7917164284  TIP3      1085            0.0000000000
     11832      1150  TIP3      OH2             6.7516217269       17.9566941353       33.3085813895  TIP3      1086            0.0000000000
     11833      1150  TIP3      H1              7.4626045035       18.0850435091       33.9431846688  TIP3      1086            0.0000000000
     11834      1150  TIP3      H2              6.3957339434       17.0776946297       33.5431639954  TIP3      1086            0.0000000000
     11835      1151  TIP3      OH2             7.6059628049       17.4853735021       24.3541139152  TIP3      1087            0.0000000000
     11836      1151  TIP3      H1              7.6753084352       18.0946824437       23.6098495418  TIP3      1087            0.0000000000
     11837      1151  TIP3      H2              8.0537202621       17.9981919542       25.0508668530  TIP3      1087            0.0000000000
     11838      1152  TIP3      OH2             4.7108483855       19.2652625263       25.1810084567  TIP3      1088            0.0000000000
     11839      1152  TIP3      H1              5.4524968048       19.8867489380       25.2061820829  TIP3      1088            0.0000000000
     11840      1152  TIP3      H2              4.4238973832       19.1645084971       26.1139429105  TIP3      1088            0.0000000000
     11841      1153  TIP3      OH2             5.3003123020       20.3559464955       34.4341881061  TIP3      1089            0.0000000000
     11842      1153  TIP3      H1              5.3624369191       20.8396592476       35.2744092013  TIP3      1089            0.0000000000
     11843      1153  TIP3      H2              5.9318128438       19.6234834602       34.4998766042  TIP3      1089            0.0000000000
     11844      1154  TIP3      OH2             5.5613902748       16.3459632165       26.0227091326  TIP3      1090            0.0000000000
     11845      1154  TIP3      H1              5.2363915527       16.9622363523       26.7062455992  TIP3      1090            0.0000000000
     11846      1154  TIP3      H2              6.2773501715       16.9028130427       25.6362593942  TIP3      1090            0.0000000000
     11847      1155  TIP3      OH2             1.2544601791       17.4401792106       22.8357270959  TIP3      1091            0.0000000000
     11848      1155  TIP3      H1              1.3084871683       18.3634121307       23.1215444480  TIP3      1091            0.0000000000
     11849      1155  TIP3      H2              2.1854947384       17.1811187064       23.0139928571  TIP3      1091            0.0000000000
     11850      1156  TIP3      OH2            11.4251137499       18.1438969447       35.2254535723  TIP3      1092            0.0000000000
     11851      1156  TIP3      H1             10.5026450808       18.4602668434       35.0959505980  TIP3      1092            0.0000000000
     11852      1156  TIP3      H2             11.7498825018       18.1627142607       34.3111490035  TIP3      1092            0.0000000000
     11853      1157  TIP3      OH2            10.0602683602       21.7891509702       29.0963079312  TIP3      1093            0.0000000000
     11854      1157  TIP3      H1              9.1672331117       21.4287430102       29.0092518785  TIP3      1093            0.0000000000
     11855      1157  TIP3      H2             10.4759462542       21.1912970818       29.7544179739  TIP3      1093            0.0000000000
     11856      1158  TIP3      OH2            -2.3262308511       20.5816762884       21.2312943359  TIP3      1094            0.0000000000
     11857      1158  TIP3      H1             -2.1818366085       21.5105489001       21.0473838778  TIP3      1094            0.0000000000
     11858      1158  TIP3      H2             -2.9539722348       20.3168778118       20.5401768897  TIP3      1094            0.0000000000
     11859      1159  TIP3      OH2            -1.3806525478       15.3488161058       29.7356225978  TIP3      1095            0.0000000000
     11860      1159  TIP3      H1             -1.5488382222       15.3499464806       28.7696592814  TIP3      1095            0.0000000000
     11861      1159  TIP3      H2             -1.7698159911       14.4819897496       29.9781823077  TIP3      1095            0.0000000000
     11862      1160  TIP3      OH2            -2.4774171516       22.7078247518       37.4380764018  TIP3      1096            0.0000000000
     11863      1160  TIP3      H1             -1.9966423253       21.8788735698       37.4993146421  TIP3      1096            0.0000000000
     11864      1160  TIP3      H2             -2.6621961751       22.9282580717       38.3831078286  TIP3      1096            0.0000000000
     11865      1161  TIP3      OH2             1.5018819695       21.9415841028       34.9483517479  TIP3      1097            0.0000000000
     11866      1161  TIP3      H1              0.9221281627       22.6870193061       35.1631396189  TIP3      1097            0.0000000000
     11867      1161  TIP3      H2              1.8683718037       22.1653462829       34.0803506854  TIP3      1097            0.0000000000
     11868      1162  TIP3      OH2             3.3539280436       22.3883028861       20.8248367424  TIP3      1098            0.0000000000
     11869      1162  TIP3      H1              3.2123843473       22.0989528926       19.9189095379  TIP3      1098            0.0000000000
     11870      1162  TIP3      H2              4.3188727666       22.3610628483       20.8355749910  TIP3      1098            0.0000000000
     11871      1163  TIP3      OH2             1.9319251622       19.1758453362       35.8831560894  TIP3      1099            0.0000000000
     11872      1163  TIP3      H1              2.0672415586       18.4758645568       35.2216819196  TIP3      1099            0.0000000000
     11873      1163  TIP3      H2              1.8826170453       19.9862941127       35.3500292732  TIP3      1099            0.0000000000
     11874      1164  TIP3      OH2             2.3390242894       17.5493025245       33.4438283327  TIP3      1100            0.0000000000
     11875      1164  TIP3      H1              2.8496958154       18.0513460028       32.7683277760  TIP3      1100            0.0000000000
     11876      1164  TIP3      H2              1.4301887295       17.6119665457       33.0791924835  TIP3      1100            0.0000000000
     11877      1165  TIP3      OH2             4.1167795473      -24.0532309082       33.4678587927  TIP3      1101            0.0000000000
     11878      1165  TIP3      H1              4.9460466567      -24.0193415563       32.9676493884  TIP3      1101            0.0000000000
     11879      1165  TIP3      H2              3.7565373779      -23.1832387147       33.3237162461  TIP3      1101            0.0000000000
     11880      1166  TIP3      OH2             8.2952668455       20.8761673813       38.6593097898  TIP3      1102            0.0000000000
     11881      1166  TIP3      H1              8.3980194476       19.9137092548       38.5539632011  TIP3      1102            0.0000000000
     11882      1166  TIP3      H2              9.2166708467       21.1562460370       38.6331955873  TIP3      1102            0.0000000000
     11883      1167  TIP3      OH2             0.3172665194       20.5353477979       37.8042561644  TIP3      1103            0.0000000000
     11884      1167  TIP3      H1             -0.3794153986       19.8568607327       37.6877216402  TIP3      1103            0.0000000000
     11885      1167  TIP3      H2              1.0312632630       20.1927527584       37.2287373547  TIP3      1103            0.0000000000
     11886      1168  TIP3      OH2             3.1285729215       15.0653504961       33.8350373837  TIP3      1104            0.0000000000
     11887      1168  TIP3      H1              2.9058794287       16.0246227416       33.7461469289  TIP3      1104            0.0000000000
     11888      1168  TIP3      H2              2.3825129823       14.6828150334       33.3378352094  TIP3      1104            0.0000000000
     11889      1169  TIP3      OH2             4.4282388978       19.3615949533       37.4917283478  TIP3      1105            0.0000000000
     11890      1169  TIP3      H1              4.0609371111       19.1905079040       38.3854549034  TIP3      1105            0.0000000000
     11891      1169  TIP3      H2              3.6422060752       19.1759453460       36.9532713070  TIP3      1105            0.0000000000
     11892      1170  TIP3      OH2             7.1325590521       18.5958077902       36.6406744958  TIP3      1106            0.0000000000
     11893      1170  TIP3      H1              6.1620147775       18.6285848511       36.7095734560  TIP3      1106            0.0000000000
     11894      1170  TIP3      H2              7.3501859908       17.9258846903       37.3197634833  TIP3      1106            0.0000000000
     11895      1171  TIP3      OH2             8.6575906378       17.1736705341       38.4618037773  TIP3      1107            0.0000000000
     11896      1171  TIP3      H1              8.6504659238       16.1935269139       38.5042516000  TIP3      1107            0.0000000000
     11897      1171  TIP3      H2              8.4669965461       17.4666722970       39.3749629946  TIP3      1107            0.0000000000
     11898      1172  TIP3      OH2            -1.5454968101       18.4761068447       37.6375643763  TIP3      1108            0.0000000000
     11899      1172  TIP3      H1             -1.3283008548       17.7377159473       37.0426068822  TIP3      1108            0.0000000000
     11900      1172  TIP3      H2             -1.6652889317       18.0116350195       38.4920755081  TIP3      1108            0.0000000000
     11901      1173  TIP3      OH2             3.3320246832       14.4963120577       36.5495249096  TIP3      1109            0.0000000000
     11902      1173  TIP3      H1              3.9961083775       13.7803708030       36.5570064202  TIP3      1109            0.0000000000
     11903      1173  TIP3      H2              3.2055471497       14.5870755006       35.5826700099  TIP3      1109            0.0000000000
     11904      1174  TIP3      OH2             3.6869362939       16.0777168049       38.7123944155  TIP3      1110            0.0000000000
     11905      1174  TIP3      H1              3.5030775906       15.5577811067       37.8901533499  TIP3      1110            0.0000000000
     11906      1174  TIP3      H2              3.1037425744       16.8558464767       38.5973213922  TIP3      1110            0.0000000000
     11907      1175  TIP3      OH2            11.3849338978       22.0402366582       26.5084505172  TIP3      1111            0.0000000000
     11908      1175  TIP3      H1             11.1755035202       21.0968054545       26.5506603057  TIP3      1111            0.0000000000
     11909      1175  TIP3      H2             11.1227340488       22.3045754530       27.4070073085  TIP3      1111            0.0000000000
     11910      1176  TIP3      OH2            13.7053565291       21.9401580573       36.9876852958  TIP3      1112            0.0000000000
     11911      1176  TIP3      H1             12.8621496502       21.5175006411       36.7622694073  TIP3      1112            0.0000000000
     11912      1176  TIP3      H2             14.3184042204       21.1973948356       36.8144687391  TIP3      1112            0.0000000000
     11913      1177  TIP3      OH2            11.5058693980       18.1289797980       20.0903834936  TIP3      1113            0.0000000000
     11914      1177  TIP3      H1             12.0944027919       17.6817382130       20.7285363792  TIP3      1113            0.0000000000
     11915      1177  TIP3      H2             10.6341670426       17.7359523754       20.2359270297  TIP3      1113            0.0000000000
     11916      1178  TIP3      OH2            11.0127138188       19.6937841509       25.1158427817  TIP3      1114            0.0000000000
     11917      1178  TIP3      H1             11.2781466993       18.7550956885       25.2166429501  TIP3      1114            0.0000000000
     11918      1178  TIP3      H2             11.8102849771       20.0674338785       24.7404493171  TIP3      1114            0.0000000000
     11919      1179  TIP3      OH2            11.7081579067       20.1132353957       30.5377314339  TIP3      1115            0.0000000000
     11920      1179  TIP3      H1             12.6476836623       20.4025114896       30.4780263691  TIP3      1115            0.0000000000
     11921      1179  TIP3      H2             11.4911196064       20.4038100891       31.4302329486  TIP3      1115            0.0000000000
     11922      1180  TIP3      OH2            11.7257685101       20.9378662453       33.4211998971  TIP3      1116            0.0000000000
     11923      1180  TIP3      H1             10.8077254007       21.2308459587       33.5934874106  TIP3      1116            0.0000000000
     11924      1180  TIP3      H2             12.1608387000       21.7283935481       33.0041728783  TIP3      1116            0.0000000000
     11925      1181  TIP3      OH2            -3.9718093286       19.4187748910       36.8057532938  TIP3      1117            0.0000000000
     11926      1181  TIP3      H1             -3.0433114707       19.2158437368       37.0338150027  TIP3      1117            0.0000000000
     11927      1181  TIP3      H2             -4.4465176549       18.6090631006       37.0882525368  TIP3      1117            0.0000000000
     11928      1182  TIP3      OH2            14.0378484439       15.0220770937       38.6126325586  TIP3      1118            0.0000000000
     11929      1182  TIP3      H1             14.3839134173       14.3440812543       38.0051456178  TIP3      1118            0.0000000000
     11930      1182  TIP3      H2             14.1077012893       15.8066296629       38.0390355677  TIP3      1118            0.0000000000
     11931      1183  TIP3      OH2            11.7081855576       16.9503567801       25.0884296083  TIP3      1119            0.0000000000
     11932      1183  TIP3      H1             11.9537650203       16.5387760092       25.9517620922  TIP3      1119            0.0000000000
     11933      1183  TIP3      H2             11.1116031903       16.2733108995       24.7002928979  TIP3      1119            0.0000000000
     11934      1184  TIP3      OH2            -2.8031893101       17.7470443908       29.6743216716  TIP3      1120            0.0000000000
     11935      1184  TIP3      H1             -2.3492948696       16.9170389730       29.9171110387  TIP3      1120            0.0000000000
     11936      1184  TIP3      H2             -2.2237219740       18.4281685537       30.0425744868  TIP3      1120            0.0000000000
     11937      1185  TIP3      OH2            -4.5265475677       20.7497797163       30.6695048887  TIP3      1121            0.0000000000
     11938      1185  TIP3      H1             -3.9537647134       20.5057031372       29.9127414828  TIP3      1121            0.0000000000
     11939      1185  TIP3      H2             -4.0712985359       21.5597628564       30.9391494677  TIP3      1121            0.0000000000
     11940      1186  TIP3      OH2            13.5349888752       17.1166492005       36.9666424307  TIP3      1122            0.0000000000
     11941      1186  TIP3      H1             12.6038956878       17.4106156223       36.9213042817  TIP3      1122            0.0000000000
     11942      1186  TIP3      H2             13.5369679554       16.5535888568       36.1764848404  TIP3      1122            0.0000000000
     11943      1187  TIP3      OH2            13.4927814294       16.9959008501       21.6218977888  TIP3      1123            0.0000000000
     11944      1187  TIP3      H1             13.8977196454       16.2773265416       21.1152495275  TIP3      1123            0.0000000000
     11945      1187  TIP3      H2             14.2427565247       17.5956488152       21.6959188328  TIP3      1123            0.0000000000
     11946      1188  TIP3      OH2            -4.1415094245       17.1495376449       24.8002397295  TIP3      1124            0.0000000000
     11947      1188  TIP3      H1             -5.1004484908       17.1192517152       24.6430500143  TIP3      1124            0.0000000000
     11948      1188  TIP3      H2             -3.8715611589       17.4102342642       23.9050432012  TIP3      1124            0.0000000000
     11949      1189  TIP3      OH2            -4.2140997561       15.6620663804       33.0625029449  TIP3      1125            0.0000000000
     11950      1189  TIP3      H1             -4.8774478488       15.4692677334       33.7468271265  TIP3      1125            0.0000000000
     11951      1189  TIP3      H2             -4.6709488815       16.3345801875       32.5141168094  TIP3      1125            0.0000000000
     11952      1190  TIP3      OH2            12.5622977737       15.1702886744       34.8591287872  TIP3      1126            0.0000000000
     11953      1190  TIP3      H1             11.7474573425       15.4902332109       34.4351882202  TIP3      1126            0.0000000000
     11954      1190  TIP3      H2             12.7203447313       14.3396877641       34.3510840845  TIP3      1126            0.0000000000
     11955      1191  TIP3      OH2             5.9476747878       16.6219402110       29.0551660866  TIP3      1127            0.0000000000
     11956      1191  TIP3      H1              5.2904924283       15.9986870517       29.4108080832  TIP3      1127            0.0000000000
     11957      1191  TIP3      H2              6.5031271927       16.0423627426       28.5273812738  TIP3      1127            0.0000000000
     11958      1192  TIP3      OH2            11.0948671491       14.6152268818       29.1183548465  TIP3      1128            0.0000000000
     11959      1192  TIP3      H1             11.6896231878       15.2412337162       28.6359291744  TIP3      1128            0.0000000000
     11960      1192  TIP3      H2             10.2050280125       14.9921661711       28.9389957585  TIP3      1128            0.0000000000
     11961      1193  TIP3      OH2            12.7457061422       15.9176868401       27.4201881921  TIP3      1129            0.0000000000
     11962      1193  TIP3      H1             13.4314128236       15.3295697815       27.0251075640  TIP3      1129            0.0000000000
     11963      1193  TIP3      H2             13.2799364984       16.7297627978       27.5784618500  TIP3      1129            0.0000000000
     11964      1194  TIP3      OH2            -1.6369828131       15.2392036225       26.9440083219  TIP3      1130            0.0000000000
     11965      1194  TIP3      H1             -2.4605671885       15.0661965252       26.4440857362  TIP3      1130            0.0000000000
     11966      1194  TIP3      H2             -1.2310934556       14.3462789058       26.8984371307  TIP3      1130            0.0000000000
     11967      1195  TIP3      OH2             2.7351703124       15.1821088097       26.7389481524  TIP3      1131            0.0000000000
     11968      1195  TIP3      H1              3.6397619721       15.5100707130       26.6238318026  TIP3      1131            0.0000000000
     11969      1195  TIP3      H2              2.7651539380       14.9160606920       27.6581330332  TIP3      1131            0.0000000000
     11970      1196  TIP3      OH2             8.5251690164       15.1692019476       28.3317416731  TIP3      1132            0.0000000000
     11971      1196  TIP3      H1              8.4359312830       15.2891516071       27.3764850897  TIP3      1132            0.0000000000
     11972      1196  TIP3      H2              8.1185943583       14.2802907806       28.4796380499  TIP3      1132            0.0000000000
     11973      1197  TIP3      OH2             9.7440341860       15.1839276097       23.9816028194  TIP3      1133            0.0000000000
     11974      1197  TIP3      H1              8.9924988221       15.7872202166       23.8886703242  TIP3      1133            0.0000000000
     11975      1197  TIP3      H2              9.3346452545       14.3424008807       24.3021668124  TIP3      1133            0.0000000000
     11976      1198  TIP3      OH2            -1.0443735524       16.7574041186       21.2488521090  TIP3      1134            0.0000000000
     11977      1198  TIP3      H1             -0.6041950398       16.2984804804       20.5374925115  TIP3      1134            0.0000000000
     11978      1198  TIP3      H2             -0.2800033439       17.2331583868       21.5888843198  TIP3      1134            0.0000000000
     11979      1199  TIP3      OH2             3.8005408350       17.1303494240       23.6889229199  TIP3      1135            0.0000000000
     11980      1199  TIP3      H1              4.2256179178       16.6129663705       24.3934429400  TIP3      1135            0.0000000000
     11981      1199  TIP3      H2              4.0636236955       18.0291655054       23.9678335346  TIP3      1135            0.0000000000
     11982      1200  TIP3      OH2            -1.8056791339       15.7843046581       36.4057391421  TIP3      1136            0.0000000000
     11983      1200  TIP3      H1             -2.2256403768       14.9820935399       36.7666063873  TIP3      1136            0.0000000000
     11984      1200  TIP3      H2             -0.9130908115       15.7192231576       36.8233120658  TIP3      1136            0.0000000000
     11985      1201  TIP3      OH2             0.1776322496       15.1762071852       38.0983863687  TIP3      1137            0.0000000000
     11986      1201  TIP3      H1              1.0666143589       14.8414756854       37.8597908464  TIP3      1137            0.0000000000
     11987      1201  TIP3      H2             -0.1911867684       14.3579187680       38.4845561100  TIP3      1137            0.0000000000
     11988      1202  TIP3      OH2             8.5974771360       14.4359372326       38.2218977455  TIP3      1138            0.0000000000
     11989      1202  TIP3      H1              8.6825605959       13.9574313417       39.0704551545  TIP3      1138            0.0000000000
     11990      1202  TIP3      H2              9.5164290149       14.4014409124       37.8839097013  TIP3      1138            0.0000000000
     11991      1203  TIP3      OH2            17.5558306380       23.1246703279       31.8488637549  TIP3      1139            0.0000000000
     11992      1203  TIP3      H1             17.5030387496       22.5702040174       32.6428772417  TIP3      1139            0.0000000000
     11993      1203  TIP3      H2             18.0966055385       23.8662727423       32.1338729583  TIP3      1139            0.0000000000
     11994      1204  TIP3      OH2            15.0621589380       21.4147075032       25.6989045212  TIP3      1140            0.0000000000
     11995      1204  TIP3      H1             14.5414795462       22.2150283849       25.8164571904  TIP3      1140            0.0000000000
     11996      1204  TIP3      H2             14.4140718238       20.7780069810       25.3928120226  TIP3      1140            0.0000000000
     11997      1205  TIP3      OH2            19.5481940608       18.5880419314       28.3396436615  TIP3      1141            0.0000000000
     11998      1205  TIP3      H1             19.9000276961       19.3747534854       27.8742601945  TIP3      1141            0.0000000000
     11999      1205  TIP3      H2             19.2799659526       18.0277779873       27.5792676957  TIP3      1141            0.0000000000
     12000      1206  TIP3      OH2            16.3854533622       20.9341104345       29.0061991619  TIP3      1142            0.0000000000
     12001      1206  TIP3      H1             17.0682637015       20.4400523725       29.5029852611  TIP3      1142            0.0000000000
     12002      1206  TIP3      H2             16.5492378727       20.6148981914       28.1111484572  TIP3      1142            0.0000000000
     12003      1207  TIP3      OH2            21.4799497547       22.3299918548       28.3868282341  TIP3      1143            0.0000000000
     12004      1207  TIP3      H1             22.1916826570       21.7581190019       28.7348825232  TIP3      1143            0.0000000000
     12005      1207  TIP3      H2             20.9642062952       21.7236676992       27.8158922580  TIP3      1143            0.0000000000
     12006      1208  TIP3      OH2            18.6215828110       17.4407292496       32.3649935318  TIP3      1144            0.0000000000
     12007      1208  TIP3      H1             18.3898793889       18.0496270033       31.6293389671  TIP3      1144            0.0000000000
     12008      1208  TIP3      H2             17.9653590003       17.7135235700       33.0530907995  TIP3      1144            0.0000000000
     12009      1209  TIP3      OH2            18.2121303929       19.3622090292       30.4039241591  TIP3      1145            0.0000000000
     12010      1209  TIP3      H1             18.8881529580       19.9955784566       30.7239136512  TIP3      1145            0.0000000000
     12011      1209  TIP3      H2             18.7021507788       18.9574253190       29.6376432510  TIP3      1145            0.0000000000
     12012      1210  TIP3      OH2            22.5541052063       14.8077588931       29.7484258780  TIP3      1146            0.0000000000
     12013      1210  TIP3      H1             22.4672916604       13.8480540779       29.7937222614  TIP3      1146            0.0000000000
     12014      1210  TIP3      H2             21.7194948935       15.1324204632       30.1320830131  TIP3      1146            0.0000000000
     12015      1211  TIP3      OH2            20.5741670926      -23.8361996571       31.0523340242  TIP3      1147            0.0000000000
     12016      1211  TIP3      H1             20.6876064839      -23.6852368520       30.0897800703  TIP3      1147            0.0000000000
     12017      1211  TIP3      H2             20.4483183830      -22.9089789281       31.3050381726  TIP3      1147            0.0000000000
     12018      1212  TIP3      OH2            20.0176489521       15.7641059225       30.5408208244  TIP3      1148            0.0000000000
     12019      1212  TIP3      H1             19.1024355456       15.5947285608       30.2211192679  TIP3      1148            0.0000000000
     12020      1212  TIP3      H2             19.8644589821       16.5640532470       31.0749070238  TIP3      1148            0.0000000000
     12021      1213  TIP3      OH2            20.0930018881       20.5471565046       31.9395006020  TIP3      1149            0.0000000000
     12022      1213  TIP3      H1             19.2906000019       20.6947802611       32.4704977054  TIP3      1149            0.0000000000
     12023      1213  TIP3      H2             20.1725184237       21.4147670630       31.4668774333  TIP3      1149            0.0000000000
     12024      1214  TIP3      OH2            20.0235501848       20.7742666184       26.6437783007  TIP3      1150            0.0000000000
     12025      1214  TIP3      H1             19.0779255840       20.5371346124       26.5287609571  TIP3      1150            0.0000000000
     12026      1214  TIP3      H2             20.3929549057       20.4579597499       25.8021503349  TIP3      1150            0.0000000000
     12027      1215  TIP3      OH2            17.7017204539       21.0300235101       33.5666171996  TIP3      1151            0.0000000000
     12028      1215  TIP3      H1             17.7245677668       21.3670922578       34.4702237573  TIP3      1151            0.0000000000
     12029      1215  TIP3      H2             17.3018644298       20.1506391831       33.6832723049  TIP3      1151            0.0000000000
     12030      1216  TIP3      OH2            14.4087939359       18.0139583844       27.5145613159  TIP3      1152            0.0000000000
     12031      1216  TIP3      H1             15.0878327147       17.9932427544       28.2244256014  TIP3      1152            0.0000000000
     12032      1216  TIP3      H2             14.8666494200       17.6837236191       26.7252400330  TIP3      1152            0.0000000000
     12033      1217  TIP3      OH2            15.5316625619       18.8007338594       22.7520047623  TIP3      1153            0.0000000000
     12034      1217  TIP3      H1             16.1928323416       19.3731727004       22.3373989179  TIP3      1153            0.0000000000
     12035      1217  TIP3      H2             14.9872477599       19.4333653316       23.2184172065  TIP3      1153            0.0000000000
     12036      1218  TIP3      OH2            22.0980393401       18.5650667541       27.8300800058  TIP3      1154            0.0000000000
     12037      1218  TIP3      H1             21.2956885060       18.2434019601       28.2776834810  TIP3      1154            0.0000000000
     12038      1218  TIP3      H2             22.7778057439       18.4254277976       28.5037682165  TIP3      1154            0.0000000000
     12039      1219  TIP3      OH2            17.4385370438       19.8783926842       26.5967658287  TIP3      1155            0.0000000000
     12040      1219  TIP3      H1             16.5820233172       20.1118378931       26.2016121491  TIP3      1155            0.0000000000
     12041      1219  TIP3      H2             17.6986847325       19.0613378527       26.1339724917  TIP3      1155            0.0000000000
     12042      1220  TIP3      OH2            21.0870327960       19.9132843798       24.1698937962  TIP3      1156            0.0000000000
     12043      1220  TIP3      H1             21.9816470827       20.1581761734       24.3898848347  TIP3      1156            0.0000000000
     12044      1220  TIP3      H2             20.8074857737       20.5721905728       23.5008988229  TIP3      1156            0.0000000000
     12045      1221  TIP3      OH2            19.7518847817       21.0350283627       21.7840145761  TIP3      1157            0.0000000000
     12046      1221  TIP3      H1             19.1853619101       20.8686588139       21.0209387582  TIP3      1157            0.0000000000
     12047      1221  TIP3      H2             20.5424268888       21.4289490200       21.3547132081  TIP3      1157            0.0000000000
     12048      1222  TIP3      OH2            18.9197115632       17.2675060579       25.9976420537  TIP3      1158            0.0000000000
     12049      1222  TIP3      H1             18.5578013958       16.3639631136       26.0778755025  TIP3      1158            0.0000000000
     12050      1222  TIP3      H2             19.6914161364       17.1432180954       25.4351906749  TIP3      1158            0.0000000000
     12051      1223  TIP3      OH2            22.4213225014       19.2324487400       32.2575590369  TIP3      1159            0.0000000000
     12052      1223  TIP3      H1             21.7724987334       19.9067012577       31.9583464736  TIP3      1159            0.0000000000
     12053      1223  TIP3      H2             23.0812581509       19.8024238956       32.6486013236  TIP3      1159            0.0000000000
     12054      1224  TIP3      OH2            22.2753899378       22.0833978621       37.3127355531  TIP3      1160            0.0000000000
     12055      1224  TIP3      H1             21.8343642166       22.3829432595       36.5030579996  TIP3      1160            0.0000000000
     12056      1224  TIP3      H2             23.1816548732       22.4367458743       37.2946506888  TIP3      1160            0.0000000000
     12057      1225  TIP3      OH2            16.8731056093       18.2225635300       34.3007270545  TIP3      1161            0.0000000000
     12058      1225  TIP3      H1             15.9572024889       18.5396352735       34.2878305037  TIP3      1161            0.0000000000
     12059      1225  TIP3      H2             16.7728218343       17.3981611924       34.8012920798  TIP3      1161            0.0000000000
     12060      1226  TIP3      OH2            19.9017118966       17.5366702026       22.7986633041  TIP3      1162            0.0000000000
     12061      1226  TIP3      H1             19.9302228469       18.4331378426       23.1648832697  TIP3      1162            0.0000000000
     12062      1226  TIP3      H2             20.8514490149       17.3349771249       22.9910415227  TIP3      1162            0.0000000000
     12063      1227  TIP3      OH2            17.4521514478       15.3431189002       29.7585596064  TIP3      1163            0.0000000000
     12064      1227  TIP3      H1             17.3325371825       15.3751208710       28.7795064457  TIP3      1163            0.0000000000
     12065      1227  TIP3      H2             17.0628426069       14.4683686559       29.9645778570  TIP3      1163            0.0000000000
     12066      1228  TIP3      OH2            16.3936498463       22.6629075791       37.4228756404  TIP3      1164            0.0000000000
     12067      1228  TIP3      H1             16.9221945201       21.8619239010       37.4840081339  TIP3      1164            0.0000000000
     12068      1228  TIP3      H2             16.2405834331       22.9140208019       38.3676584275  TIP3      1164            0.0000000000
     12069      1229  TIP3      OH2            20.2694657459       21.9093629994       34.9549530763  TIP3      1165            0.0000000000
     12070      1229  TIP3      H1             19.7801685278       22.7056207165       35.1896106126  TIP3      1165            0.0000000000
     12071      1229  TIP3      H2             20.7153001474       22.1605389559       34.1301031664  TIP3      1165            0.0000000000
     12072      1230  TIP3      OH2            22.0234473852       21.6178423197       20.6999340545  TIP3      1166            0.0000000000
     12073      1230  TIP3      H1             21.6850523534       22.1971773671       19.9805658454  TIP3      1166            0.0000000000
     12074      1230  TIP3      H2             22.7570334272       22.1337680779       21.0144320348  TIP3      1166            0.0000000000
     12075      1231  TIP3      OH2            20.7964000177       19.1295785555       35.8392352615  TIP3      1167            0.0000000000
     12076      1231  TIP3      H1             20.9457778929       18.4488447492       35.1572667569  TIP3      1167            0.0000000000
     12077      1231  TIP3      H2             20.7425757862       19.9608568775       35.3304261594  TIP3      1167            0.0000000000
     12078      1232  TIP3      OH2            21.1259670999       17.4360934522       33.4548905590  TIP3      1168            0.0000000000
     12079      1232  TIP3      H1             21.6448757458       18.0438794443       32.8738976416  TIP3      1168            0.0000000000
     12080      1232  TIP3      H2             20.2412004425       17.5915214172       33.0734582301  TIP3      1168            0.0000000000
     12081      1233  TIP3      OH2            22.9376748868      -24.2022236519       33.5529459316  TIP3      1169            0.0000000000
     12082      1233  TIP3      H1             23.7668420986      -24.0802119282       33.0685657660  TIP3      1169            0.0000000000
     12083      1233  TIP3      H2             22.6140970674      -23.3150698212       33.3711921641  TIP3      1169            0.0000000000
     12084      1234  TIP3      OH2            19.1912876311       20.5343295489       37.8062630309  TIP3      1170            0.0000000000
     12085      1234  TIP3      H1             18.4675217716       19.8917843994       37.6516051092  TIP3      1170            0.0000000000
     12086      1234  TIP3      H2             19.9085185801       20.1860946277       37.2357518609  TIP3      1170            0.0000000000
     12087      1235  TIP3      OH2            21.6547246597       14.9787485719       34.0411042898  TIP3      1171            0.0000000000
     12088      1235  TIP3      H1             21.6053720895       15.9502777225       33.8418897927  TIP3      1171            0.0000000000
     12089      1235  TIP3      H2             21.0452349976       14.6363092230       33.3638338227  TIP3      1171            0.0000000000
     12090      1236  TIP3      OH2            22.7987653139       19.5881118921       37.9944165791  TIP3      1172            0.0000000000
     12091      1236  TIP3      H1             22.7969395767       18.8541121638       38.6000678737  TIP3      1172            0.0000000000
     12092      1236  TIP3      H2             22.3014730613       19.2764921268       37.2086170694  TIP3      1172            0.0000000000
     12093      1237  TIP3      OH2            17.2798362576       18.4592741002       37.6317017680  TIP3      1173            0.0000000000
     12094      1237  TIP3      H1             17.5360647075       17.7276249855       37.0393465985  TIP3      1173            0.0000000000
     12095      1237  TIP3      H2             17.2308874869       18.0039703235       38.4964225308  TIP3      1173            0.0000000000
     12096      1238  TIP3      OH2            22.2024805362       14.4619795341       36.5555630578  TIP3      1174            0.0000000000
     12097      1238  TIP3      H1             22.9365353135       13.8304853444       36.5146606479  TIP3      1174            0.0000000000
     12098      1238  TIP3      H2             22.0277384732       14.6159640456       35.5961991580  TIP3      1174            0.0000000000
     12099      1239  TIP3      OH2            22.5365222192       16.0389547160       38.7032106819  TIP3      1175            0.0000000000
     12100      1239  TIP3      H1             22.3988507874       15.5495098185       37.8543758930  TIP3      1175            0.0000000000
     12101      1239  TIP3      H2             21.9318104907       16.8133929920       38.6425916495  TIP3      1175            0.0000000000
     12102      1240  TIP3      OH2            14.8840135868       19.4218232182       36.8001877388  TIP3      1176            0.0000000000
     12103      1240  TIP3      H1             15.8142925193       19.2252675786       37.0339979622  TIP3      1176            0.0000000000
     12104      1240  TIP3      H2             14.4168832108       18.6097439387       37.0863418986  TIP3      1176            0.0000000000
     12105      1241  TIP3      OH2            16.0558111399       17.7504859861       29.6779022314  TIP3      1177            0.0000000000
     12106      1241  TIP3      H1             16.5067971879       16.9177729648       29.9164322931  TIP3      1177            0.0000000000
     12107      1241  TIP3      H2             16.6535614010       18.4270157635       30.0284648189  TIP3      1177            0.0000000000
     12108      1242  TIP3      OH2            14.3303291621       20.7519444638       30.6680942369  TIP3      1178            0.0000000000
     12109      1242  TIP3      H1             14.9037684756       20.5028637017       29.9128825756  TIP3      1178            0.0000000000
     12110      1242  TIP3      H2             14.7884660447       21.5595272919       30.9385051198  TIP3      1178            0.0000000000
     12111      1243  TIP3      OH2            14.6770512036       17.0905435836       24.7622238866  TIP3      1179            0.0000000000
     12112      1243  TIP3      H1             13.7205296943       17.1842875748       24.6331912898  TIP3      1179            0.0000000000
     12113      1243  TIP3      H2             15.0669661976       17.5202995807       23.9933695008  TIP3      1179            0.0000000000
     12114      1244  TIP3      OH2            14.6424528452       15.6645493489       33.0680912971  TIP3      1180            0.0000000000
     12115      1244  TIP3      H1             13.9786418171       15.4646578212       33.7515455859  TIP3      1180            0.0000000000
     12116      1244  TIP3      H2             14.1795234355       16.3340352775       32.5270479812  TIP3      1180            0.0000000000
     12117      1245  TIP3      OH2            17.1991757707       15.2140797547       26.9955144701  TIP3      1181            0.0000000000
     12118      1245  TIP3      H1             16.4029021061       15.0791997774       26.4527254629  TIP3      1181            0.0000000000
     12119      1245  TIP3      H2             17.6171692080       14.3365492239       26.9025165625  TIP3      1181            0.0000000000
     12120      1246  TIP3      OH2            15.9227328021       14.9752937472       22.6330086620  TIP3      1182            0.0000000000
     12121      1246  TIP3      H1             16.3888253799       15.6924836196       22.1728765369  TIP3      1182            0.0000000000
     12122      1246  TIP3      H2             15.3344945428       15.4446138733       23.2501277519  TIP3      1182            0.0000000000
     12123      1247  TIP3      OH2            21.4877219438       15.2969824780       26.8413517965  TIP3      1183            0.0000000000
     12124      1247  TIP3      H1             22.4332951329       15.4600964191       26.6763678070  TIP3      1183            0.0000000000
     12125      1247  TIP3      H2             21.5238621916       15.0099898071       27.7638289292  TIP3      1183            0.0000000000
     12126      1248  TIP3      OH2            17.7511248720       16.7881432152       21.2627007883  TIP3      1184            0.0000000000
     12127      1248  TIP3      H1             18.3515425722       16.4112761231       20.6216316627  TIP3      1184            0.0000000000
     12128      1248  TIP3      H2             18.3904652652       17.2929287509       21.8132413256  TIP3      1184            0.0000000000
     12129      1249  TIP3      OH2            22.3536105412       17.2983878835       23.2950622496  TIP3      1185            0.0000000000
     12130      1249  TIP3      H1             22.8642259314       16.6043879599       23.7386004350  TIP3      1185            0.0000000000
     12131      1249  TIP3      H2             22.7724488437       18.0913288627       23.6475033648  TIP3      1185            0.0000000000
     12132      1250  TIP3      OH2            17.0513468801       15.7852764646       36.3935909018  TIP3      1186            0.0000000000
     12133      1250  TIP3      H1             16.6625904438       14.9718216747       36.7584168609  TIP3      1186            0.0000000000
     12134      1250  TIP3      H2             17.9507333546       15.7108358315       36.7992754868  TIP3      1186            0.0000000000
     12135      1251  TIP3      OH2            19.0073082226       15.0950995693       38.0086369607  TIP3      1187            0.0000000000
     12136      1251  TIP3      H1             19.9144549970       14.8043804637       37.8155557792  TIP3      1187            0.0000000000
     12137      1251  TIP3      H2             18.6891316486       14.3080742942       38.4904481315  TIP3      1187            0.0000000000
     12138      1252  TIP3      OH2           -11.4232556502      -13.3314191560       45.6192068755  TIP3      1188            0.0000000000
     12139      1252  TIP3      H1            -11.4910425962      -12.3542971089       45.6587933179  TIP3      1188            0.0000000000
     12140      1252  TIP3      H2            -12.1866833323      -13.5640372569       45.0647133478  TIP3      1188            0.0000000000
     12141      1253  TIP3      OH2           -12.5823776292      -14.1060767445       49.1490115769  TIP3      1189            0.0000000000
     12142      1253  TIP3      H1            -12.6015735097      -14.7280358381       49.8920053510  TIP3      1189            0.0000000000
     12143      1253  TIP3      H2            -13.0032299992      -14.6218884379       48.4400872888  TIP3      1189            0.0000000000
     12144      1254  TIP3      OH2           -20.2181761156      -14.4273876233       50.6727377717  TIP3      1190            0.0000000000
     12145      1254  TIP3      H1            -20.1511068134      -15.1086320536       51.3741863347  TIP3      1190            0.0000000000
     12146      1254  TIP3      H2            -19.4917869682      -13.8361786167       50.9307158419  TIP3      1190            0.0000000000
     12147      1255  TIP3      OH2            -8.9452696651      -11.1364527862       47.4674430342  TIP3      1191            0.0000000000
     12148      1255  TIP3      H1             -9.3280255327      -11.8598409672       47.9681918911  TIP3      1191            0.0000000000
     12149      1255  TIP3      H2             -8.8851955466      -10.4398844145       48.1460169881  TIP3      1191            0.0000000000
     12150      1256  TIP3      OH2           -19.3827895725       -9.9484373672       49.1961864612  TIP3      1192            0.0000000000
     12151      1256  TIP3      H1            -19.6522640081      -10.8404001323       48.8957268716  TIP3      1192            0.0000000000
     12152      1256  TIP3      H2            -18.4229805038      -10.1093939378       49.2362683811  TIP3      1192            0.0000000000
     12153      1257  TIP3      OH2           -22.6146541176      -16.3787891707       44.6094728520  TIP3      1193            0.0000000000
     12154      1257  TIP3      H1            -23.0402933999      -15.5123927860       44.6919304979  TIP3      1193            0.0000000000
     12155      1257  TIP3      H2            -23.2901909763      -16.9595798633       44.2847078937  TIP3      1193            0.0000000000
     12156      1258  TIP3      OH2           -21.9122691173      -14.1987058380       46.9132284058  TIP3      1194            0.0000000000
     12157      1258  TIP3      H1            -21.6626119070      -15.0575121854       47.3042922354  TIP3      1194            0.0000000000
     12158      1258  TIP3      H2            -21.2473630289      -14.0566948546       46.2284808579  TIP3      1194            0.0000000000
     12159      1259  TIP3      OH2           -11.8135906302       -5.9669357902       47.7021452021  TIP3      1195            0.0000000000
     12160      1259  TIP3      H1            -11.1517212052       -6.6381943492       47.4011302304  TIP3      1195            0.0000000000
     12161      1259  TIP3      H2            -12.0385175923       -6.3464253822       48.5538029181  TIP3      1195            0.0000000000
     12162      1260  TIP3      OH2           -14.2291668365      -11.6930719382       49.6902754301  TIP3      1196            0.0000000000
     12163      1260  TIP3      H1            -13.9041893008      -12.3025712020       49.0105845937  TIP3      1196            0.0000000000
     12164      1260  TIP3      H2            -13.3941519525      -11.5306915687       50.1665740821  TIP3      1196            0.0000000000
     12165      1261  TIP3      OH2            -5.5902440652      -20.1099142658       50.3692825964  TIP3      1197            0.0000000000
     12166      1261  TIP3      H1             -5.4476001112      -19.4824650153       51.1171638227  TIP3      1197            0.0000000000
     12167      1261  TIP3      H2             -5.0744947017      -19.6545887680       49.6869000742  TIP3      1197            0.0000000000
     12168      1262  TIP3      OH2           -11.0533642731      -17.2513145468       49.9920264533  TIP3      1198            0.0000000000
     12169      1262  TIP3      H1            -10.8810431283      -18.2092778371       49.9981865118  TIP3      1198            0.0000000000
     12170      1262  TIP3      H2            -11.1564153015      -17.1005083559       49.0316920789  TIP3      1198            0.0000000000
     12171      1263  TIP3      OH2           -18.0083461879      -19.0622556918       47.1729513841  TIP3      1199            0.0000000000
     12172      1263  TIP3      H1            -17.8299736901      -18.2693612882       46.6295119882  TIP3      1199            0.0000000000
     12173      1263  TIP3      H2            -18.2987253079      -19.7078236753       46.4889760630  TIP3      1199            0.0000000000
     12174      1264  TIP3      OH2           -10.1667300202      -19.1426194324       45.5114060599  TIP3      1200            0.0000000000
     12175      1264  TIP3      H1             -9.5615301349      -19.4127053066       46.2389599162  TIP3      1200            0.0000000000
     12176      1264  TIP3      H2             -9.6229559782      -18.4760558282       45.0670851382  TIP3      1200            0.0000000000
     12177      1265  TIP3      OH2           -21.1870657760      -16.6911066637       47.8378694242  TIP3      1201            0.0000000000
     12178      1265  TIP3      H1            -20.6089402773      -17.2979074600       48.3224670281  TIP3      1201            0.0000000000
     12179      1265  TIP3      H2            -21.1629529312      -17.0736112996       46.9474414004  TIP3      1201            0.0000000000
     12180      1266  TIP3      OH2           -16.1921939303      -15.1632504390       47.2633186693  TIP3      1202            0.0000000000
     12181      1266  TIP3      H1            -15.4923592731      -15.7449734688       47.6081474113  TIP3      1202            0.0000000000
     12182      1266  TIP3      H2            -16.6743266730      -15.7966179556       46.6962208992  TIP3      1202            0.0000000000
     12183      1267  TIP3      OH2            -5.1776830654      -18.6031930923       52.6275821758  TIP3      1203            0.0000000000
     12184      1267  TIP3      H1             -5.7884383571      -17.8421631269       52.5221016882  TIP3      1203            0.0000000000
     12185      1267  TIP3      H2             -5.1733471058      -18.7134206892       53.5855145206  TIP3      1203            0.0000000000
     12186      1268  TIP3      OH2           -19.0153332566      -20.2191262863       51.1764749141  TIP3      1204            0.0000000000
     12187      1268  TIP3      H1            -19.3327408182      -19.6311829090       50.4495286920  TIP3      1204            0.0000000000
     12188      1268  TIP3      H2            -19.7180515299      -20.0278280980       51.8546250235  TIP3      1204            0.0000000000
     12189      1269  TIP3      OH2           -11.7735291634      -10.7611881452       44.7670717810  TIP3      1205            0.0000000000
     12190      1269  TIP3      H1            -11.9897682609      -11.0105528417       43.8560711133  TIP3      1205            0.0000000000
     12191      1269  TIP3      H2            -12.0625702604       -9.8225356653       44.8102899690  TIP3      1205            0.0000000000
     12192      1270  TIP3      OH2           -16.5400830513      -12.5956228047       51.4165340998  TIP3      1206            0.0000000000
     12193      1270  TIP3      H1            -17.2329001795      -11.9572889040       51.6917315917  TIP3      1206            0.0000000000
     12194      1270  TIP3      H2            -15.8293961909      -11.9945978144       51.1330312404  TIP3      1206            0.0000000000
     12195      1271  TIP3      OH2            -8.4218808425      -19.6277894450       47.5816816409  TIP3      1207            0.0000000000
     12196      1271  TIP3      H1             -8.5965737979      -20.4619991023       48.0449750504  TIP3      1207            0.0000000000
     12197      1271  TIP3      H2             -7.6971495692      -19.2783659836       48.1195690021  TIP3      1207            0.0000000000
     12198      1272  TIP3      OH2           -19.4634636263      -18.3438172368       49.2795693852  TIP3      1208            0.0000000000
     12199      1272  TIP3      H1            -18.8213989691      -17.6586904370       49.5666896240  TIP3      1208            0.0000000000
     12200      1272  TIP3      H2            -18.9738219450      -18.7608547771       48.5186511072  TIP3      1208            0.0000000000
     12201      1273  TIP3      OH2           -18.0380092825      -10.5618404599       52.2392349959  TIP3      1209            0.0000000000
     12202      1273  TIP3      H1            -18.1066107837       -9.6437880240       51.9262752373  TIP3      1209            0.0000000000
     12203      1273  TIP3      H2            -18.9164884113      -10.6731070510       52.6719075267  TIP3      1209            0.0000000000
     12204      1274  TIP3      OH2           -21.5594704499      -10.7009681942       42.9790940389  TIP3      1210            0.0000000000
     12205      1274  TIP3      H1            -22.2545004027      -10.7514730315       42.2912598388  TIP3      1210            0.0000000000
     12206      1274  TIP3      H2            -21.9344571746      -10.0886731389       43.6234689962  TIP3      1210            0.0000000000
     12207      1275  TIP3      OH2            -8.4008820903       -9.2896532161       49.8182200213  TIP3      1211            0.0000000000
     12208      1275  TIP3      H1             -9.3687716165       -9.1689758779       49.9404985917  TIP3      1211            0.0000000000
     12209      1275  TIP3      H2             -8.1331927531       -8.3768674286       49.6006860055  TIP3      1211            0.0000000000
     12210      1276  TIP3      OH2            -7.9954733220      -21.0290221494       51.3285649820  TIP3      1212            0.0000000000
     12211      1276  TIP3      H1             -8.7739361698      -20.4974356045       51.0934110872  TIP3      1212            0.0000000000
     12212      1276  TIP3      H2             -7.3520677278      -20.6507639525       50.7036505685  TIP3      1212            0.0000000000
     12213      1277  TIP3      OH2           -14.9086344067      -22.6494448351       48.7762813950  TIP3      1213            0.0000000000
     12214      1277  TIP3      H1            -15.0528129752      -23.6098015769       48.6802197519  TIP3      1213            0.0000000000
     12215      1277  TIP3      H2            -15.8160010056      -22.3404341040       48.9106783101  TIP3      1213            0.0000000000
     12216      1278  TIP3      OH2           -10.1252707346       -7.5064376485       46.3914948150  TIP3      1214            0.0000000000
     12217      1278  TIP3      H1             -9.7194411619       -8.2393284534       45.8823124820  TIP3      1214            0.0000000000
     12218      1278  TIP3      H2             -9.6340178004       -6.7388478194       46.0258972648  TIP3      1214            0.0000000000
     12219      1279  TIP3      OH2            -8.8981940366       -9.5893018020       44.9290312247  TIP3      1215            0.0000000000
     12220      1279  TIP3      H1             -9.2134036493      -10.2732697361       44.3170665813  TIP3      1215            0.0000000000
     12221      1279  TIP3      H2             -8.8752734179      -10.0885896259       45.7648139655  TIP3      1215            0.0000000000
     12222      1280  TIP3      OH2            -7.3188491805      -10.9638249384       53.4282002951  TIP3      1216            0.0000000000
     12223      1280  TIP3      H1             -7.1728309914      -11.6540721257       52.7437907531  TIP3      1216            0.0000000000
     12224      1280  TIP3      H2             -7.0915293273      -10.1476550204       52.9434543910  TIP3      1216            0.0000000000
     12225      1281  TIP3      OH2           -12.8083269373      -14.1350166595       43.1497119852  TIP3      1217            0.0000000000
     12226      1281  TIP3      H1            -13.4861473975      -13.5227204097       42.8095985562  TIP3      1217            0.0000000000
     12227      1281  TIP3      H2            -12.0766974090      -13.9945744015       42.5225345460  TIP3      1217            0.0000000000
     12228      1282  TIP3      OH2           -12.7060695047      -15.4961498919       40.1688277062  TIP3      1218            0.0000000000
     12229      1282  TIP3      H1            -12.0079252139      -15.5026987828       40.8485094290  TIP3      1218            0.0000000000
     12230      1282  TIP3      H2            -12.4101056908      -16.2468413729       39.6448763195  TIP3      1218            0.0000000000
     12231      1283  TIP3      OH2            -5.4068574350      -14.6614716707       51.4287959803  TIP3      1219            0.0000000000
     12232      1283  TIP3      H1             -6.0462610017      -13.9234877136       51.4658369039  TIP3      1219            0.0000000000
     12233      1283  TIP3      H2             -4.8784784345      -14.4172609194       50.6440313305  TIP3      1219            0.0000000000
     12234      1284  TIP3      OH2            -9.3238647284      -13.9392377328       44.0968021042  TIP3      1220            0.0000000000
     12235      1284  TIP3      H1            -10.0613163823      -13.6664307289       44.6907103177  TIP3      1220            0.0000000000
     12236      1284  TIP3      H2             -8.8334557993      -14.5720699108       44.6495747814  TIP3      1220            0.0000000000
     12237      1285  TIP3      OH2            -9.4130464828      -15.7338201607       53.2485716287  TIP3      1221            0.0000000000
     12238      1285  TIP3      H1             -9.4179892704      -14.8979105814       53.7413473467  TIP3      1221            0.0000000000
     12239      1285  TIP3      H2            -10.0301491410      -15.4626286685       52.5394397696  TIP3      1221            0.0000000000
     12240      1286  TIP3      OH2           -17.7157414476      -13.2240032915       46.0339202839  TIP3      1222            0.0000000000
     12241      1286  TIP3      H1            -18.0615671957      -13.6203368197       45.1961575276  TIP3      1222            0.0000000000
     12242      1286  TIP3      H2            -17.1093916215      -13.9267593780       46.3576633243  TIP3      1222            0.0000000000
     12243      1287  TIP3      OH2           -16.4534171978       -9.8847643978       48.7040195067  TIP3      1223            0.0000000000
     12244      1287  TIP3      H1            -16.4116395736      -10.3585968100       47.8604471458  TIP3      1223            0.0000000000
     12245      1287  TIP3      H2            -15.6427830684      -10.2045140350       49.1458697991  TIP3      1223            0.0000000000
     12246      1288  TIP3      OH2           -17.4255233905      -14.4914127302       49.7011280747  TIP3      1224            0.0000000000
     12247      1288  TIP3      H1            -16.8977327428      -14.4100058821       48.8811749383  TIP3      1224            0.0000000000
     12248      1288  TIP3      H2            -17.0225711477      -13.8037132703       50.2798928923  TIP3      1224            0.0000000000
     12249      1289  TIP3      OH2           -10.9745766618       -8.9052171452       50.4208564662  TIP3      1225            0.0000000000
     12250      1289  TIP3      H1            -11.2388321340       -8.2780823698       51.1105531309  TIP3      1225            0.0000000000
     12251      1289  TIP3      H2            -11.2180363067       -9.7685071970       50.8237082315  TIP3      1225            0.0000000000
     12252      1290  TIP3      OH2           -16.4536243779      -10.0516757852       54.3873477388  TIP3      1226            0.0000000000
     12253      1290  TIP3      H1            -16.9070135486       -9.3379930252       54.8865957389  TIP3      1226            0.0000000000
     12254      1290  TIP3      H2            -17.1091815777      -10.2687972316       53.6799273615  TIP3      1226            0.0000000000
     12255      1291  TIP3      OH2           -10.4479447989      -14.6637597775       41.7457095616  TIP3      1227            0.0000000000
     12256      1291  TIP3      H1             -9.9063176763      -14.4999438182       42.5557459016  TIP3      1227            0.0000000000
     12257      1291  TIP3      H2             -9.9718280133      -14.1788492863       41.0297870926  TIP3      1227            0.0000000000
     12258      1292  TIP3      OH2           -19.5031513313      -13.8803564028       53.5251146464  TIP3      1228            0.0000000000
     12259      1292  TIP3      H1            -19.4350367112      -13.1916638599       54.2126867750  TIP3      1228            0.0000000000
     12260      1292  TIP3      H2            -20.4630906514      -13.8214563714       53.3546085201  TIP3      1228            0.0000000000
     12261      1293  TIP3      OH2           -12.7534283159       -7.9639187905       45.2263681548  TIP3      1229            0.0000000000
     12262      1293  TIP3      H1            -12.3409105826       -7.6605927947       46.0435984079  TIP3      1229            0.0000000000
     12263      1293  TIP3      H2            -13.3030846178       -7.2111269764       44.9752950852  TIP3      1229            0.0000000000
     12264      1294  TIP3      OH2           -18.1873005130       -8.0538620424       55.1405002134  TIP3      1230            0.0000000000
     12265      1294  TIP3      H1            -18.2718108737       -8.1158699174       54.1703773898  TIP3      1230            0.0000000000
     12266      1294  TIP3      H2            -19.1128221876       -8.1747362706       55.4291370097  TIP3      1230            0.0000000000
     12267      1295  TIP3      OH2            -6.7052461969      -22.9638957552       41.6640814062  TIP3      1231            0.0000000000
     12268      1295  TIP3      H1             -7.6131678794      -22.8093097421       41.9666889773  TIP3      1231            0.0000000000
     12269      1295  TIP3      H2             -6.4778284837      -22.1028864388       41.2721978235  TIP3      1231            0.0000000000
     12270      1296  TIP3      OH2           -18.7288962832      -14.2250797922       43.6661626975  TIP3      1232            0.0000000000
     12271      1296  TIP3      H1            -19.0434208451      -13.4475812081       43.1569088549  TIP3      1232            0.0000000000
     12272      1296  TIP3      H2            -19.3662988794      -14.9041296502       43.4292721262  TIP3      1232            0.0000000000
     12273      1297  TIP3      OH2            -5.6235958522       -8.6055221061       40.0260948976  TIP3      1233            0.0000000000
     12274      1297  TIP3      H1             -5.4295797350       -7.6680030962       40.1992205969  TIP3      1233            0.0000000000
     12275      1297  TIP3      H2             -4.7130622048       -8.9536493629       40.0579800331  TIP3      1233            0.0000000000
     12276      1298  TIP3      OH2           -22.5995228432      -11.7233491080       52.5266075739  TIP3      1234            0.0000000000
     12277      1298  TIP3      H1            -22.9733868958      -11.8541933203       51.6478900167  TIP3      1234            0.0000000000
     12278      1298  TIP3      H2            -22.5392584316      -12.6508843538       52.7997189435  TIP3      1234            0.0000000000
     12279      1299  TIP3      OH2           -22.8666053399       -9.0015155456       49.1983666103  TIP3      1235            0.0000000000
     12280      1299  TIP3      H1            -21.9159153844       -9.1809117165       49.2804475220  TIP3      1235            0.0000000000
     12281      1299  TIP3      H2            -23.0134725605       -8.3106630655       49.8590790929  TIP3      1235            0.0000000000
     12282      1300  TIP3      OH2            -4.6529117009       -8.3499431316       55.0161868281  TIP3      1236            0.0000000000
     12283      1300  TIP3      H1             -4.8188586601       -9.3046124657       54.9796513990  TIP3      1236            0.0000000000
     12284      1300  TIP3      H2             -5.5332089065       -8.0719685373       55.3748209623  TIP3      1236            0.0000000000
     12285      1301  TIP3      OH2           -13.7424441169       -8.8272505999       53.8363429313  TIP3      1237            0.0000000000
     12286      1301  TIP3      H1            -13.6577171365       -8.0039007657       54.3614962792  TIP3      1237            0.0000000000
     12287      1301  TIP3      H2            -14.5989585743       -9.1889238080       54.1304142389  TIP3      1237            0.0000000000
     12288      1302  TIP3      OH2           -13.2642356482       -5.0770870945       43.6358055147  TIP3      1238            0.0000000000
     12289      1302  TIP3      H1            -13.3863975900       -5.1288993089       42.6708503877  TIP3      1238            0.0000000000
     12290      1302  TIP3      H2            -13.2746227744       -4.1177113801       43.8154969203  TIP3      1238            0.0000000000
     12291      1303  TIP3      OH2           -19.6195811790       -6.1974649250       45.4725804740  TIP3      1239            0.0000000000
     12292      1303  TIP3      H1            -19.4913719461       -6.6039441770       46.3570736938  TIP3      1239            0.0000000000
     12293      1303  TIP3      H2            -20.4624892722       -6.6200494668       45.2327270930  TIP3      1239            0.0000000000
     12294      1304  TIP3      OH2           -10.2237448711       -5.8415196985       40.6281207910  TIP3      1240            0.0000000000
     12295      1304  TIP3      H1             -9.7395487485       -6.5912038705       40.2016827750  TIP3      1240            0.0000000000
     12296      1304  TIP3      H2            -10.1700497260       -6.0883277161       41.5729233220  TIP3      1240            0.0000000000
     12297      1305  TIP3      OH2           -10.5262367457       -5.9071718382       43.4100315935  TIP3      1241            0.0000000000
     12298      1305  TIP3      H1            -11.4915066798       -5.8297975863       43.5570262583  TIP3      1241            0.0000000000
     12299      1305  TIP3      H2            -10.3155920487       -6.6607988996       43.9819560467  TIP3      1241            0.0000000000
     12300      1306  TIP3      OH2            -7.5409823060      -16.8910851068       55.4696944405  TIP3      1242            0.0000000000
     12301      1306  TIP3      H1             -8.0291973457      -16.4371706006       54.7611600794  TIP3      1242            0.0000000000
     12302      1306  TIP3      H2             -7.5645189527      -17.8120670954       55.1682983626  TIP3      1242            0.0000000000
     12303      1307  TIP3      OH2           -20.3790895035      -10.4379553784       53.5062677689  TIP3      1243            0.0000000000
     12304      1307  TIP3      H1            -20.2295647679      -10.7792501143       54.4112628756  TIP3      1243            0.0000000000
     12305      1307  TIP3      H2            -21.2607476951      -10.8284852782       53.2921059103  TIP3      1243            0.0000000000
     12306      1308  TIP3      OH2           -17.6727717699      -21.4435347658       49.2927450656  TIP3      1244            0.0000000000
     12307      1308  TIP3      H1            -18.5368425354      -21.8312525501       48.9836442008  TIP3      1244            0.0000000000
     12308      1308  TIP3      H2            -18.0126689481      -20.9495364422       50.0611133147  TIP3      1244            0.0000000000
     12309      1309  TIP3      OH2           -13.0486005070      -22.0581263238       53.0125156439  TIP3      1245            0.0000000000
     12310      1309  TIP3      H1            -12.5890041116      -22.7254106283       53.5285545808  TIP3      1245            0.0000000000
     12311      1309  TIP3      H2            -13.9307483510      -22.4268311045       52.9825901534  TIP3      1245            0.0000000000
     12312      1310  TIP3      OH2            -9.8025021871      -18.5161299418       53.6859249594  TIP3      1246            0.0000000000
     12313      1310  TIP3      H1            -10.3728388585      -18.6950311986       54.4672216221  TIP3      1246            0.0000000000
     12314      1310  TIP3      H2             -9.9542815119      -17.5792813239       53.4612400885  TIP3      1246            0.0000000000
     12315      1311  TIP3      OH2            -9.0091133763      -13.6249145065       39.6665303815  TIP3      1247            0.0000000000
     12316      1311  TIP3      H1             -9.0784748700      -13.8206801267       38.7058475413  TIP3      1247            0.0000000000
     12317      1311  TIP3      H2             -8.1472630246      -13.1844842600       39.6538615561  TIP3      1247            0.0000000000
     12318      1312  TIP3      OH2           -13.4241329348      -19.7242875350       40.1159711513  TIP3      1248            0.0000000000
     12319      1312  TIP3      H1            -13.7313024922      -19.8032496540       41.0348415362  TIP3      1248            0.0000000000
     12320      1312  TIP3      H2            -13.7089059621      -20.6009157444       39.7935179791  TIP3      1248            0.0000000000
     12321      1313  TIP3      OH2           -17.5991973216      -17.0038631658       50.6903179451  TIP3      1249            0.0000000000
     12322      1313  TIP3      H1            -18.3025471929      -17.0129712300       51.3624615566  TIP3      1249            0.0000000000
     12323      1313  TIP3      H2            -17.6603623467      -16.0953400378       50.3132939898  TIP3      1249            0.0000000000
     12324      1314  TIP3      OH2           -17.6219647570      -16.8832716499       45.5305276103  TIP3      1250            0.0000000000
     12325      1314  TIP3      H1            -18.5763386405      -17.1277256769       45.4401866456  TIP3      1250            0.0000000000
     12326      1314  TIP3      H2            -17.2963234420      -17.2115451082       44.6729912304  TIP3      1250            0.0000000000
     12327      1315  TIP3      OH2           -12.1073045352      -16.3759841889       44.3160329782  TIP3      1251            0.0000000000
     12328      1315  TIP3      H1            -12.4970754175      -15.5530861526       43.9387701458  TIP3      1251            0.0000000000
     12329      1315  TIP3      H2            -11.4354782548      -16.5723157798       43.6423109137  TIP3      1251            0.0000000000
     12330      1316  TIP3      OH2           -13.0952080952      -16.1874928360       55.7353069005  TIP3      1252            0.0000000000
     12331      1316  TIP3      H1            -13.5867819413      -17.0009373642       56.0175134288  TIP3      1252            0.0000000000
     12332      1316  TIP3      H2            -12.2524748080      -16.2755628393       56.2127577657  TIP3      1252            0.0000000000
     12333      1317  TIP3      OH2           -11.0631560518      -16.8873730669       47.1781007482  TIP3      1253            0.0000000000
     12334      1317  TIP3      H1            -11.3851238046      -16.3239651196       46.4528653206  TIP3      1253            0.0000000000
     12335      1317  TIP3      H2            -11.0106520301      -17.7394631563       46.7162808140  TIP3      1253            0.0000000000
     12336      1318  TIP3      OH2           -20.0518591321      -16.7510520089       52.3571096877  TIP3      1254            0.0000000000
     12337      1318  TIP3      H1            -19.9201070845      -16.3826773495       53.2442943627  TIP3      1254            0.0000000000
     12338      1318  TIP3      H2            -20.3918483771      -17.6369828469       52.5621437357  TIP3      1254            0.0000000000
     12339      1319  TIP3      OH2           -16.5760365417      -19.3330095134       39.4886432907  TIP3      1255            0.0000000000
     12340      1319  TIP3      H1            -17.0298013896      -19.8233473823       40.2296374149  TIP3      1255            0.0000000000
     12341      1319  TIP3      H2            -17.2477497438      -18.6848309035       39.2250942511  TIP3      1255            0.0000000000
     12342      1320  TIP3      OH2           -22.0915409994      -19.5060475072       46.0792671540  TIP3      1256            0.0000000000
     12343      1320  TIP3      H1            -22.3768350136      -19.7084626207       46.9825914704  TIP3      1256            0.0000000000
     12344      1320  TIP3      H2            -22.7212994626      -20.0528735487       45.5692206635  TIP3      1256            0.0000000000
     12345      1321  TIP3      OH2           -22.0648750808      -18.8193153927       41.8368708923  TIP3      1257            0.0000000000
     12346      1321  TIP3      H1            -21.5137732540      -18.3724888949       41.1618576411  TIP3      1257            0.0000000000
     12347      1321  TIP3      H2            -22.7715904370      -18.2042902440       41.9672509621  TIP3      1257            0.0000000000
     12348      1322  TIP3      OH2           -11.9218796461      -15.3319568781       51.6727453807  TIP3      1258            0.0000000000
     12349      1322  TIP3      H1            -11.5134824608      -16.0308348080       51.1139049261  TIP3      1258            0.0000000000
     12350      1322  TIP3      H2            -12.3923183100      -15.8528489166       52.3488017835  TIP3      1258            0.0000000000
     12351      1323  TIP3      OH2           -15.0947643426      -19.2648283021       46.5617696086  TIP3      1259            0.0000000000
     12352      1323  TIP3      H1            -16.0254695560      -19.3954622087       46.8396693076  TIP3      1259            0.0000000000
     12353      1323  TIP3      H2            -14.6136048546      -19.5583680498       47.3566152061  TIP3      1259            0.0000000000
     12354      1324  TIP3      OH2           -20.1471217060      -17.7172838283       45.3050903412  TIP3      1260            0.0000000000
     12355      1324  TIP3      H1            -21.0995832422      -17.6644516078       45.0820993965  TIP3      1260            0.0000000000
     12356      1324  TIP3      H2            -19.9777053251      -18.6488466652       45.0610411266  TIP3      1260            0.0000000000
     12357      1325  TIP3      OH2           -16.6404924707      -17.7434983862       43.0445986802  TIP3      1261            0.0000000000
     12358      1325  TIP3      H1            -15.6814422396      -17.6502182805       43.1854343955  TIP3      1261            0.0000000000
     12359      1325  TIP3      H2            -16.8898447689      -17.0411895094       42.4142566592  TIP3      1261            0.0000000000
     12360      1326  TIP3      OH2           -10.6613555186      -20.1950347253       49.7640582885  TIP3      1262            0.0000000000
     12361      1326  TIP3      H1            -11.3430425490      -20.0866002518       50.4567745694  TIP3      1262            0.0000000000
     12362      1326  TIP3      H2            -11.1702390391      -20.4471208374       48.9818486201  TIP3      1262            0.0000000000
     12363      1327  TIP3      OH2           -17.9285573550      -16.5929939709       40.6226524466  TIP3      1263            0.0000000000
     12364      1327  TIP3      H1            -18.4534017028      -16.9421100923       39.8907399571  TIP3      1263            0.0000000000
     12365      1327  TIP3      H2            -17.1067887747      -16.3319035402       40.1738204277  TIP3      1263            0.0000000000
     12366      1328  TIP3      OH2            -7.4656021765       -4.4560141587       56.1251149626  TIP3      1264            0.0000000000
     12367      1328  TIP3      H1             -7.2511616537       -4.0821428868       55.2542550926  TIP3      1264            0.0000000000
     12368      1328  TIP3      H2             -6.7461187751       -4.1116580722       56.6658912152  TIP3      1264            0.0000000000
     12369      1329  TIP3      OH2           -19.7529835572      -12.0282647673       55.6745320196  TIP3      1265            0.0000000000
     12370      1329  TIP3      H1            -19.0356185002      -11.7614214827       56.2728247782  TIP3      1265            0.0000000000
     12371      1329  TIP3      H2            -20.5284376757      -11.9377157674       56.2835555126  TIP3      1265            0.0000000000
     12372      1330  TIP3      OH2           -13.8145180497      -16.5877243860       48.4507995037  TIP3      1266            0.0000000000
     12373      1330  TIP3      H1            -13.2284240254      -17.1296871581       47.9123784594  TIP3      1266            0.0000000000
     12374      1330  TIP3      H2            -13.9933755289      -17.1661554893       49.2057756272  TIP3      1266            0.0000000000
     12375      1331  TIP3      OH2           -18.8888322424      -20.4456189625       44.8696682911  TIP3      1267            0.0000000000
     12376      1331  TIP3      H1            -19.1745127127      -21.3722100318       44.9384231113  TIP3      1267            0.0000000000
     12377      1331  TIP3      H2            -18.0592458529      -20.5571302122       44.3751592966  TIP3      1267            0.0000000000
     12378      1332  TIP3      OH2           -15.1315839356      -18.2516446289       50.8023115302  TIP3      1268            0.0000000000
     12379      1332  TIP3      H1            -15.9678242066      -17.7447856569       50.9067812584  TIP3      1268            0.0000000000
     12380      1332  TIP3      H2            -14.6017384180      -17.9175848018       51.5497656067  TIP3      1268            0.0000000000
     12381      1333  TIP3      OH2           -14.5861957781      -12.0557260064       42.5715492774  TIP3      1269            0.0000000000
     12382      1333  TIP3      H1            -15.3936021338      -12.5003893179       42.2225756000  TIP3      1269            0.0000000000
     12383      1333  TIP3      H2            -14.8409777486      -11.8821916619       43.5013338239  TIP3      1269            0.0000000000
     12384      1334  TIP3      OH2            -7.3602032213      -12.8013942534       51.3636445272  TIP3      1270            0.0000000000
     12385      1334  TIP3      H1             -6.8263298662      -12.3182459688       50.7032396459  TIP3      1270            0.0000000000
     12386      1334  TIP3      H2             -8.2299540747      -12.8088116274       50.9150737813  TIP3      1270            0.0000000000
     12387      1335  TIP3      OH2           -10.7379787388      -19.2275799906       40.7263548516  TIP3      1271            0.0000000000
     12388      1335  TIP3      H1            -11.6961518756      -19.0821567966       40.5909562973  TIP3      1271            0.0000000000
     12389      1335  TIP3      H2            -10.4042988792      -18.3836592237       41.0922201092  TIP3      1271            0.0000000000
     12390      1336  TIP3      OH2           -13.1535978940      -11.7470417162       53.7801035068  TIP3      1272            0.0000000000
     12391      1336  TIP3      H1            -13.4367110692      -12.1884567769       54.5858554446  TIP3      1272            0.0000000000
     12392      1336  TIP3      H2            -13.3466457488      -10.8195153590       53.9556202059  TIP3      1272            0.0000000000
     12393      1337  TIP3      OH2           -10.0297919961      -17.2784698230       42.3231704831  TIP3      1273            0.0000000000
     12394      1337  TIP3      H1             -9.1642679826      -17.4244891217       42.7701999982  TIP3      1273            0.0000000000
     12395      1337  TIP3      H2             -9.8952221229      -16.4533988301       41.8285026274  TIP3      1273            0.0000000000
     12396      1338  TIP3      OH2           -19.4639813647      -12.6103419183       48.3766047773  TIP3      1274            0.0000000000
     12397      1338  TIP3      H1            -18.8611128643      -12.7087438247       47.6154825982  TIP3      1274            0.0000000000
     12398      1338  TIP3      H2            -19.3923103706      -13.4843166706       48.7997795556  TIP3      1274            0.0000000000
     12399      1339  TIP3      OH2           -12.5085237243      -10.5834327695       41.5920953549  TIP3      1275            0.0000000000
     12400      1339  TIP3      H1            -12.8518965415       -9.7300269572       41.9364504306  TIP3      1275            0.0000000000
     12401      1339  TIP3      H2            -13.2328652608      -11.2010334672       41.8274171119  TIP3      1275            0.0000000000
     12402      1340  TIP3      OH2           -22.2374699066      -14.2056387403       53.6831147461  TIP3      1276            0.0000000000
     12403      1340  TIP3      H1            -22.0952849174      -14.6307770326       54.5506377517  TIP3      1276            0.0000000000
     12404      1340  TIP3      H2            -23.0346016945      -14.6880679716       53.3662406427  TIP3      1276            0.0000000000
     12405      1341  TIP3      OH2           -15.4693513807      -14.6750799546       55.7713919171  TIP3      1277            0.0000000000
     12406      1341  TIP3      H1            -15.8106875227      -15.0306621546       54.9341980818  TIP3      1277            0.0000000000
     12407      1341  TIP3      H2            -14.5574961476      -15.0290303602       55.7668180271  TIP3      1277            0.0000000000
     12408      1342  TIP3      OH2           -10.7821549068       -9.3055852955       53.7532082792  TIP3      1278            0.0000000000
     12409      1342  TIP3      H1            -11.7122309032       -9.1165704205       53.5696351883  TIP3      1278            0.0000000000
     12410      1342  TIP3      H2            -10.7505541770       -9.0647892831       54.7017907722  TIP3      1278            0.0000000000
     12411      1343  TIP3      OH2            -5.1409979046      -17.1648686362       42.1342514657  TIP3      1279            0.0000000000
     12412      1343  TIP3      H1             -5.6815148843      -17.4449135615       41.3694259736  TIP3      1279            0.0000000000
     12413      1343  TIP3      H2             -5.0604032969      -16.2095555908       41.9104800856  TIP3      1279            0.0000000000
     12414      1344  TIP3      OH2            -5.1081819330      -11.3329397932       54.9213765375  TIP3      1280            0.0000000000
     12415      1344  TIP3      H1             -6.0060102450      -11.0883798325       54.5813752104  TIP3      1280            0.0000000000
     12416      1344  TIP3      H2             -4.5815755933      -11.3668801132       54.0933328365  TIP3      1280            0.0000000000
     12417      1345  TIP3      OH2            -6.8914842970       -8.3486786160       42.5056525226  TIP3      1281            0.0000000000
     12418      1345  TIP3      H1             -7.2054237170       -9.1868513027       42.8657501247  TIP3      1281            0.0000000000
     12419      1345  TIP3      H2             -6.5007895320       -8.5852163503       41.6483393960  TIP3      1281            0.0000000000
     12420      1346  TIP3      OH2            -9.6092994180      -13.5191879989       49.6400093016  TIP3      1282            0.0000000000
     12421      1346  TIP3      H1            -10.5513451775      -13.7194964831       49.5145827598  TIP3      1282            0.0000000000
     12422      1346  TIP3      H2             -9.1790869591      -14.2624101599       49.1762888736  TIP3      1282            0.0000000000
     12423      1347  TIP3      OH2           -17.1013523363       -9.1646335912       45.7718270379  TIP3      1283            0.0000000000
     12424      1347  TIP3      H1            -16.6052655114       -8.3615215939       45.5464022349  TIP3      1283            0.0000000000
     12425      1347  TIP3      H2            -17.9707392023       -8.9562956222       45.4018525394  TIP3      1283            0.0000000000
     12426      1348  TIP3      OH2           -21.5047092730      -14.3281516185       40.3238189974  TIP3      1284            0.0000000000
     12427      1348  TIP3      H1            -20.7927243544      -13.7421165267       40.6710573906  TIP3      1284            0.0000000000
     12428      1348  TIP3      H2            -22.2770993655      -13.8580213507       40.6602665530  TIP3      1284            0.0000000000
     12429      1349  TIP3      OH2           -15.7128250556      -11.5047421896       45.2255525899  TIP3      1285            0.0000000000
     12430      1349  TIP3      H1            -16.0455447205      -10.5961888149       45.3517079465  TIP3      1285            0.0000000000
     12431      1349  TIP3      H2            -16.3999889960      -12.0270712670       45.6878502604  TIP3      1285            0.0000000000
     12432      1350  TIP3      OH2           -15.2654955659       -7.3185754162       51.6704154529  TIP3      1286            0.0000000000
     12433      1350  TIP3      H1            -14.7528987327       -6.5423821562       51.4023988894  TIP3      1286            0.0000000000
     12434      1350  TIP3      H2            -14.6640801016       -7.6963013045       52.3368564225  TIP3      1286            0.0000000000
     12435      1351  TIP3      OH2           -17.0057022037       -6.5467745382       44.7547317331  TIP3      1287            0.0000000000
     12436      1351  TIP3      H1            -17.9710540917       -6.4120787210       44.9122824320  TIP3      1287            0.0000000000
     12437      1351  TIP3      H2            -16.6375674465       -5.7089151391       45.0912375389  TIP3      1287            0.0000000000
     12438      1352  TIP3      OH2           -11.7739408287      -11.3835488704       51.2650082698  TIP3      1288            0.0000000000
     12439      1352  TIP3      H1            -12.0351298300      -11.5521291674       52.1942230143  TIP3      1288            0.0000000000
     12440      1352  TIP3      H2            -11.0986811950      -12.0629066784       51.1039253957  TIP3      1288            0.0000000000
     12441      1353  TIP3      OH2            -9.3408601376      -10.2281282957       40.3763816486  TIP3      1289            0.0000000000
     12442      1353  TIP3      H1             -9.0571636272      -10.7267140661       41.1687821727  TIP3      1289            0.0000000000
     12443      1353  TIP3      H2            -10.2910849312      -10.4351069146       40.4289837903  TIP3      1289            0.0000000000
     12444      1354  TIP3      OH2            -8.8007695969       -6.7856842980       53.7247869731  TIP3      1290            0.0000000000
     12445      1354  TIP3      H1             -9.5917494464       -7.2285425259       53.3652814777  TIP3      1290            0.0000000000
     12446      1354  TIP3      H2             -8.7440577455       -6.0333504008       53.1054618720  TIP3      1290            0.0000000000
     12447      1355  TIP3      OH2            -4.9121994140       -5.9080801866       40.6370017427  TIP3      1291            0.0000000000
     12448      1355  TIP3      H1             -4.2377027769       -5.2377015648       40.4138064373  TIP3      1291            0.0000000000
     12449      1355  TIP3      H2             -5.6290795978       -5.3057343833       40.9283846861  TIP3      1291            0.0000000000
     12450      1356  TIP3      OH2           -20.8073082451      -19.5702599377       53.0719763188  TIP3      1292            0.0000000000
     12451      1356  TIP3      H1            -21.6667829417      -19.1541222136       53.2781471625  TIP3      1292            0.0000000000
     12452      1356  TIP3      H2            -20.8962906370      -20.3669644139       53.6195629948  TIP3      1292            0.0000000000
     12453      1357  TIP3      OH2            -8.6058328665      -11.6170039786       42.6293940730  TIP3      1293            0.0000000000
     12454      1357  TIP3      H1             -8.8437758337      -12.4168970594       43.1418775832  TIP3      1293            0.0000000000
     12455      1357  TIP3      H2             -7.6446308335      -11.5986172905       42.7790344427  TIP3      1293            0.0000000000
     12456      1358  TIP3      OH2           -21.2438243711       -7.7732563783       51.6370523560  TIP3      1294            0.0000000000
     12457      1358  TIP3      H1            -20.8430045080       -8.6563843376       51.5866144542  TIP3      1294            0.0000000000
     12458      1358  TIP3      H2            -20.8808506914       -7.4440997683       52.4635893492  TIP3      1294            0.0000000000
     12459      1359  TIP3      OH2           -15.2401394502       -9.1567417958       38.8892871352  TIP3      1295            0.0000000000
     12460      1359  TIP3      H1            -15.1581034274       -9.9156809873       38.2880045355  TIP3      1295            0.0000000000
     12461      1359  TIP3      H2            -15.7205739475       -9.5961110814       39.6242334429  TIP3      1295            0.0000000000
     12462      1360  TIP3      OH2           -16.5225078658       -9.6666630450       41.3529359271  TIP3      1296            0.0000000000
     12463      1360  TIP3      H1            -16.1598506135      -10.1790157068       42.0875004031  TIP3      1296            0.0000000000
     12464      1360  TIP3      H2            -16.4253013118       -8.7417731386       41.6725040612  TIP3      1296            0.0000000000
     12465      1361  TIP3      OH2           -19.9217520125      -12.4250730110       41.7886678898  TIP3      1297            0.0000000000
     12466      1361  TIP3      H1            -20.6477150235      -11.9834381935       42.2937192865  TIP3      1297            0.0000000000
     12467      1361  TIP3      H2            -19.4063105244      -11.6397570893       41.5194352058  TIP3      1297            0.0000000000
     12468      1362  TIP3      OH2           -12.0566138966      -19.7299157831       52.1564360577  TIP3      1298            0.0000000000
     12469      1362  TIP3      H1            -11.3618738414      -19.6838478589       52.8196219521  TIP3      1298            0.0000000000
     12470      1362  TIP3      H2            -12.4406761805      -20.6118456786       52.3677812090  TIP3      1298            0.0000000000
     12471      1363  TIP3      OH2           -11.2118903968      -20.2529436390       43.2315321807  TIP3      1299            0.0000000000
     12472      1363  TIP3      H1            -11.1391705139      -19.7162347599       42.4155919220  TIP3      1299            0.0000000000
     12473      1363  TIP3      H2            -10.8139738956      -19.6523968683       43.8884988795  TIP3      1299            0.0000000000
     12474      1364  TIP3      OH2           -13.6730830216       -8.0094175070       42.0070032707  TIP3      1300            0.0000000000
     12475      1364  TIP3      H1            -14.4926872787       -7.4819273622       42.0970297323  TIP3      1300            0.0000000000
     12476      1364  TIP3      H2            -13.1250191689       -7.4343293686       41.4555295892  TIP3      1300            0.0000000000
     12477      1365  TIP3      OH2           -14.1234288899      -18.4484559735       44.0161944691  TIP3      1301            0.0000000000
     12478      1365  TIP3      H1            -13.3770812521      -17.8251005815       44.0799780857  TIP3      1301            0.0000000000
     12479      1365  TIP3      H2            -14.4298949948      -18.5636253150       44.9383564143  TIP3      1301            0.0000000000
     12480      1366  TIP3      OH2           -13.5357613798      -17.3523642392       53.2183203767  TIP3      1302            0.0000000000
     12481      1366  TIP3      H1            -13.5005396232      -16.8444935610       54.0535343941  TIP3      1302            0.0000000000
     12482      1366  TIP3      H2            -12.9234072977      -18.0924448765       53.3321656269  TIP3      1302            0.0000000000
     12483      1367  TIP3      OH2           -13.2975523046      -21.3345292164       44.9715398343  TIP3      1303            0.0000000000
     12484      1367  TIP3      H1            -13.6372764915      -20.6632915101       45.5833949338  TIP3      1303            0.0000000000
     12485      1367  TIP3      H2            -12.6290615991      -20.8233795717       44.4701171696  TIP3      1303            0.0000000000
     12486      1368  TIP3      OH2           -16.2583663867       -7.0024094480       42.0526270507  TIP3      1304            0.0000000000
     12487      1368  TIP3      H1            -16.1160781884       -6.1952668540       41.5035596399  TIP3      1304            0.0000000000
     12488      1368  TIP3      H2            -16.5345891721       -6.6164323626       42.9165281000  TIP3      1304            0.0000000000
     12489      1369  TIP3      OH2           -17.6883180699      -20.2425201833       41.6338273667  TIP3      1305            0.0000000000
     12490      1369  TIP3      H1            -17.7245812897      -19.3790798849       42.0898782455  TIP3      1305            0.0000000000
     12491      1369  TIP3      H2            -16.7873971869      -20.5165843418       41.9151548199  TIP3      1305            0.0000000000
     12492      1370  TIP3      OH2            -7.4041792982      -19.5192618273       54.0591390397  TIP3      1306            0.0000000000
     12493      1370  TIP3      H1             -8.3359798150      -19.2198577355       53.9310910833  TIP3      1306            0.0000000000
     12494      1370  TIP3      H2             -7.1174984532      -19.5816820564       53.1314991834  TIP3      1306            0.0000000000
     12495      1371  TIP3      OH2            -8.7750813154      -15.7289281168       48.0535692796  TIP3      1307            0.0000000000
     12496      1371  TIP3      H1             -9.6014835484      -16.1921326254       47.8094499992  TIP3      1307            0.0000000000
     12497      1371  TIP3      H2             -8.2772655645      -16.4019883778       48.5709819740  TIP3      1307            0.0000000000
     12498      1372  TIP3      OH2           -19.3672360930       -9.8071606370       40.6585027360  TIP3      1308            0.0000000000
     12499      1372  TIP3      H1            -18.6792654253       -9.2211106309       41.0029279874  TIP3      1308            0.0000000000
     12500      1372  TIP3      H2            -18.8739534665      -10.3106555414       39.9880778141  TIP3      1308            0.0000000000
     12501      1373  TIP3      OH2           -21.0687404002      -17.1124588890       39.7265315504  TIP3      1309            0.0000000000
     12502      1373  TIP3      H1            -21.0810130676      -16.1908598011       40.0478432761  TIP3      1309            0.0000000000
     12503      1373  TIP3      H2            -21.9716589146      -17.3017141808       39.4658492582  TIP3      1309            0.0000000000
     12504      1374  TIP3      OH2            -7.7044859979       -6.4573548023       49.6925496551  TIP3      1310            0.0000000000
     12505      1374  TIP3      H1             -7.7747588804       -5.7645739761       49.0094542404  TIP3      1310            0.0000000000
     12506      1374  TIP3      H2             -6.7477762172       -6.4140834874       49.9067605035  TIP3      1310            0.0000000000
     12507      1375  TIP3      OH2           -20.1568689022      -22.2620223543       48.4564486129  TIP3      1311            0.0000000000
     12508      1375  TIP3      H1            -20.4265219711      -22.3155682091       47.5128451484  TIP3      1311            0.0000000000
     12509      1375  TIP3      H2            -20.5674367172      -23.0835146490       48.7973840717  TIP3      1311            0.0000000000
     12510      1376  TIP3      OH2           -21.2807231239       -8.3721952022       44.8012800716  TIP3      1312            0.0000000000
     12511      1376  TIP3      H1            -22.1378468097       -7.9626377761       44.6578875194  TIP3      1312            0.0000000000
     12512      1376  TIP3      H2            -20.8312467423       -8.0635900939       44.0037220121  TIP3      1312            0.0000000000
     12513      1377  TIP3      OH2           -22.0332661615       -5.7956210568       55.9228879101  TIP3      1313            0.0000000000
     12514      1377  TIP3      H1            -21.4788566347       -5.9107061313       56.7215934379  TIP3      1313            0.0000000000
     12515      1377  TIP3      H2            -22.4653996359       -6.6548735024       55.8848692924  TIP3      1313            0.0000000000
     12516      1378  TIP3      OH2           -17.3389974045       -6.8743291109       57.5667238997  TIP3      1314            0.0000000000
     12517      1378  TIP3      H1            -16.5713579207       -7.3623147262       57.8936822015  TIP3      1314            0.0000000000
     12518      1378  TIP3      H2            -17.4203861676       -7.1823280444       56.6443945175  TIP3      1314            0.0000000000
     12519      1379  TIP3      OH2           -13.2212267298       -7.3307670792       39.0136386849  TIP3      1315            0.0000000000
     12520      1379  TIP3      H1            -13.9326712224       -7.9904013547       39.1852815587  TIP3      1315            0.0000000000
     12521      1379  TIP3      H2            -12.5197537953       -7.9400158874       38.7404762217  TIP3      1315            0.0000000000
     12522      1380  TIP3      OH2           -10.2519593961       -9.4146934797       56.5030124322  TIP3      1316            0.0000000000
     12523      1380  TIP3      H1            -11.1899155483       -9.5416099360       56.7403798191  TIP3      1316            0.0000000000
     12524      1380  TIP3      H2            -10.1569491483       -8.4824641103       56.8116149706  TIP3      1316            0.0000000000
     12525      1381  TIP3      OH2            -8.6835912924       -7.6143991137       39.1770764716  TIP3      1317            0.0000000000
     12526      1381  TIP3      H1             -8.3981017008       -8.3844670246       39.6961317358  TIP3      1317            0.0000000000
     12527      1381  TIP3      H2             -7.9165370987       -7.4219050292       38.6200808542  TIP3      1317            0.0000000000
     12528      1382  TIP3      OH2           -22.0006631447      -11.9817100960       56.9614106589  TIP3      1318            0.0000000000
     12529      1382  TIP3      H1            -21.9818026794      -12.9286633050       56.7511413630  TIP3      1318            0.0000000000
     12530      1382  TIP3      H2            -22.8828558389      -11.7655761691       56.5949312181  TIP3      1318            0.0000000000
     12531      1383  TIP3      OH2           -17.8068895947      -11.6637342455       38.9552899370  TIP3      1319            0.0000000000
     12532      1383  TIP3      H1            -17.6731255083      -12.3966304675       39.5740826002  TIP3      1319            0.0000000000
     12533      1383  TIP3      H2            -17.0276976707      -11.7857285834       38.3766912916  TIP3      1319            0.0000000000
     12534      1384  TIP3      OH2           -15.4582821658      -12.0110661657       56.3557903417  TIP3      1320            0.0000000000
     12535      1384  TIP3      H1            -15.8133875527      -11.6906902636       55.5026761018  TIP3      1320            0.0000000000
     12536      1384  TIP3      H2            -15.3986405378      -12.9892970271       56.2380654103  TIP3      1320            0.0000000000
     12537      1385  TIP3      OH2           -12.3675896245      -10.5405652885       38.7702959569  TIP3      1321            0.0000000000
     12538      1385  TIP3      H1            -12.6330581208      -10.4857414707       39.7024649012  TIP3      1321            0.0000000000
     12539      1385  TIP3      H2            -12.5416935507      -11.4980937021       38.6047998387  TIP3      1321            0.0000000000
     12540      1386  TIP3      OH2            -9.7840678869      -12.1439897171       53.7518300871  TIP3      1322            0.0000000000
     12541      1386  TIP3      H1             -8.9746876349      -11.5846358757       53.7608219785  TIP3      1322            0.0000000000
     12542      1386  TIP3      H2            -10.4515342357      -11.4372857991       53.8117219760  TIP3      1322            0.0000000000
     12543      1387  TIP3      OH2           -21.4356061674      -14.8754352943       56.3874488805  TIP3      1323            0.0000000000
     12544      1387  TIP3      H1            -20.7560498158      -15.5669355530       56.2914664517  TIP3      1323            0.0000000000
     12545      1387  TIP3      H2            -21.3856455581      -14.7375516809       57.3513118629  TIP3      1323            0.0000000000
     12546      1388  TIP3      OH2           -16.5813989418      -13.6291984202       41.4677591189  TIP3      1324            0.0000000000
     12547      1388  TIP3      H1            -17.1278466663      -14.1768902079       42.0527290546  TIP3      1324            0.0000000000
     12548      1388  TIP3      H2            -16.2697637160      -14.2842056081       40.8081520180  TIP3      1324            0.0000000000
     12549      1389  TIP3      OH2           -17.3216226513      -15.8512583803       53.7027427766  TIP3      1325            0.0000000000
     12550      1389  TIP3      H1            -17.9487474471      -15.1525763266       53.9618167350  TIP3      1325            0.0000000000
     12551      1389  TIP3      H2            -16.9206205362      -15.4595439960       52.9074222797  TIP3      1325            0.0000000000
     12552      1390  TIP3      OH2           -15.5677374054      -15.4519121454       39.6216866733  TIP3      1326            0.0000000000
     12553      1390  TIP3      H1            -15.6860122197      -15.4435069801       38.6515061554  TIP3      1326            0.0000000000
     12554      1390  TIP3      H2            -14.5908006410      -15.3787513116       39.7220395976  TIP3      1326            0.0000000000
     12555      1391  TIP3      OH2           -12.2495878013      -13.2468439347       57.0762080340  TIP3      1327            0.0000000000
     12556      1391  TIP3      H1            -11.3046682581      -13.3092328060       56.8851034914  TIP3      1327            0.0000000000
     12557      1391  TIP3      H2            -12.4256129364      -14.0314720817       57.6217858373  TIP3      1327            0.0000000000
     12558      1392  TIP3      OH2            -6.2405488403      -13.1054610759       39.0238342587  TIP3      1328            0.0000000000
     12559      1392  TIP3      H1             -6.3808239517      -13.4630734114       38.1290787950  TIP3      1328            0.0000000000
     12560      1392  TIP3      H2             -6.1281576314      -12.1395001294       38.8531914399  TIP3      1328            0.0000000000
     12561      1393  TIP3      OH2           -16.8862437689      -18.4686173468       54.7570300022  TIP3      1329            0.0000000000
     12562      1393  TIP3      H1            -16.8077166886      -19.1453351320       54.0602770112  TIP3      1329            0.0000000000
     12563      1393  TIP3      H2            -17.0178058484      -17.6570110643       54.2279380380  TIP3      1329            0.0000000000
     12564      1394  TIP3      OH2           -16.5467786632      -19.8321494852       52.3232364175  TIP3      1330            0.0000000000
     12565      1394  TIP3      H1            -16.0209173588      -19.5373916151       51.5452307008  TIP3      1330            0.0000000000
     12566      1394  TIP3      H2            -17.4169718446      -20.0573055976       51.9244124398  TIP3      1330            0.0000000000
     12567      1395  TIP3      OH2           -14.9962050682      -14.5510555616       52.5647975166  TIP3      1331            0.0000000000
     12568      1395  TIP3      H1            -14.2365365032      -14.7271692263       52.0034606838  TIP3      1331            0.0000000000
     12569      1395  TIP3      H2            -15.3677523251      -13.7270883505       52.2038354714  TIP3      1331            0.0000000000
     12570      1396  TIP3      OH2           -10.6107864694      -16.8545292757       57.4977560248  TIP3      1332            0.0000000000
     12571      1396  TIP3      H1            -10.3578650363      -17.7878203116       57.4264945433  TIP3      1332            0.0000000000
     12572      1396  TIP3      H2             -9.7536126645      -16.3996090315       57.5622083794  TIP3      1332            0.0000000000
     12573      1397  TIP3      OH2            -9.2380420750      -14.0123962535       55.7371296256  TIP3      1333            0.0000000000
     12574      1397  TIP3      H1             -9.5112340920      -13.3157332845       55.1030943993  TIP3      1333            0.0000000000
     12575      1397  TIP3      H2             -8.2816501233      -14.0232791675       55.5421188207  TIP3      1333            0.0000000000
     12576      1398  TIP3      OH2           -18.4784623129      -17.1884367139       56.6474304083  TIP3      1334            0.0000000000
     12577      1398  TIP3      H1            -19.2233898108      -17.8162577083       56.5442796623  TIP3      1334            0.0000000000
     12578      1398  TIP3      H2            -17.8235143543      -17.6056584264       56.0524693391  TIP3      1334            0.0000000000
     12579      1399  TIP3      OH2           -16.6198185303      -22.3328302758       52.8018217661  TIP3      1335            0.0000000000
     12580      1399  TIP3      H1            -16.1268205654      -21.4909796330       52.6169302004  TIP3      1335            0.0000000000
     12581      1399  TIP3      H2            -16.5176154870      -22.8784578168       52.0238873923  TIP3      1335            0.0000000000
     12582      1400  TIP3      OH2           -14.4493879427      -18.3080720642       56.3566787972  TIP3      1336            0.0000000000
     12583      1400  TIP3      H1            -14.7916856034      -18.5704081420       57.2322098546  TIP3      1336            0.0000000000
     12584      1400  TIP3      H2            -15.2277188097      -18.4964917378       55.8003291507  TIP3      1336            0.0000000000
     12585      1401  TIP3      OH2           -11.7691236403      -19.2049353122       55.4621139895  TIP3      1337            0.0000000000
     12586      1401  TIP3      H1            -12.7284525543      -19.1074160310       55.5804663423  TIP3      1337            0.0000000000
     12587      1401  TIP3      H2            -11.5191594087      -19.8063540506       56.1884644698  TIP3      1337            0.0000000000
     12588      1402  TIP3      OH2           -10.1266743211      -20.4515434885       57.3455413847  TIP3      1338            0.0000000000
     12589      1402  TIP3      H1            -10.2062562157      -21.4280878294       57.3151346158  TIP3      1338            0.0000000000
     12590      1402  TIP3      H2            -10.4104500101      -20.2165539473       58.2508639733  TIP3      1338            0.0000000000
     12591      1403  TIP3      OH2           -20.2399337432      -19.2757995410       56.5066743790  TIP3      1339            0.0000000000
     12592      1403  TIP3      H1            -20.1150206730      -20.0203352695       55.8884898425  TIP3      1339            0.0000000000
     12593      1403  TIP3      H2            -20.4491457474      -19.7390355794       57.3437729828  TIP3      1339            0.0000000000
     12594      1404  TIP3      OH2           -15.2131302766       24.1941436338       54.9457992118  TIP3      1340            0.0000000000
     12595      1404  TIP3      H1            -14.6944918266       23.4049701367       55.1276410050  TIP3      1340            0.0000000000
     12596      1404  TIP3      H2            -15.7353935520       23.9510742372       54.1539414690  TIP3      1340            0.0000000000
     12597      1405  TIP3      OH2           -15.1157707384      -21.5643260808       57.5089143677  TIP3      1341            0.0000000000
     12598      1405  TIP3      H1            -15.3025878462      -22.0358262825       56.6760477406  TIP3      1341            0.0000000000
     12599      1405  TIP3      H2            -15.7353654382      -20.8175649166       57.4613011144  TIP3      1341            0.0000000000
     12600      1406  TIP3      OH2           -15.7194025880       -4.7007516108       40.7235993345  TIP3      1342            0.0000000000
     12601      1406  TIP3      H1            -14.7461008150       -4.6950379343       40.8014290324  TIP3      1342            0.0000000000
     12602      1406  TIP3      H2            -15.7922679248       -4.1292859607       39.9444286263  TIP3      1342            0.0000000000
     12603      1407  TIP3      OH2           -22.0483586681      -10.0688022984       40.1346216963  TIP3      1343            0.0000000000
     12604      1407  TIP3      H1            -21.1000180866      -10.0349822587       40.3844457403  TIP3      1343            0.0000000000
     12605      1407  TIP3      H2            -22.0592840591      -10.7573067118       39.4440497864  TIP3      1343            0.0000000000
     12606      1408  TIP3      OH2            23.5906523745       -5.0071797490       44.8922007931  TIP3      1344            0.0000000000
     12607      1408  TIP3      H1             22.6688727204       -5.1937332177       44.6995110980  TIP3      1344            0.0000000000
     12608      1408  TIP3      H2             23.7159238213       -5.4152626399       45.7800165282  TIP3      1344            0.0000000000
     12609      1409  TIP3      OH2           -22.5227311419       -6.6079093235       46.9853897316  TIP3      1345            0.0000000000
     12610      1409  TIP3      H1            -22.8146483918       -7.4971158045       47.2186645035  TIP3      1345            0.0000000000
     12611      1409  TIP3      H2            -22.2510528980       -6.2385437851       47.8529564662  TIP3      1345            0.0000000000
     12612      1410  TIP3      OH2            -4.9917541191       -5.8141357700       49.9318308776  TIP3      1346            0.0000000000
     12613      1410  TIP3      H1             -4.9450465130       -5.6898178463       50.8960401810  TIP3      1346            0.0000000000
     12614      1410  TIP3      H2             -4.2902061716       -5.2263912922       49.6378180943  TIP3      1346            0.0000000000
     12615      1411  TIP3      OH2            -5.3883450251       -6.2420873803       52.8820876799  TIP3      1347            0.0000000000
     12616      1411  TIP3      H1             -5.9142467605       -6.9775016629       52.5072203582  TIP3      1347            0.0000000000
     12617      1411  TIP3      H2             -4.9616412716       -6.7089001361       53.6236523642  TIP3      1347            0.0000000000
     12618      1412  TIP3      OH2            -6.9762178031      -10.5411554641       57.6137634460  TIP3      1348            0.0000000000
     12619      1412  TIP3      H1             -7.9209218481      -10.4972420419       57.8772897209  TIP3      1348            0.0000000000
     12620      1412  TIP3      H2             -6.6362507930       -9.6946411357       57.9603688871  TIP3      1348            0.0000000000
     12621      1413  TIP3      OH2            -5.6632638861      -12.1673731470       42.9695169541  TIP3      1349            0.0000000000
     12622      1413  TIP3      H1             -4.7898581578      -11.7859741291       43.1655650316  TIP3      1349            0.0000000000
     12623      1413  TIP3      H2             -5.6961897980      -12.8715464208       43.6493459258  TIP3      1349            0.0000000000
     12624      1414  TIP3      OH2            -5.3243951304      -14.0822213594       44.8795264555  TIP3      1350            0.0000000000
     12625      1414  TIP3      H1             -6.0838933135      -14.5735204934       45.2681683772  TIP3      1350            0.0000000000
     12626      1414  TIP3      H2             -4.7234712586      -13.9836078941       45.6480332694  TIP3      1350            0.0000000000
     12627      1415  TIP3      OH2            -5.5606727680      -11.4264517032       49.8666028971  TIP3      1351            0.0000000000
     12628      1415  TIP3      H1             -4.7636124928      -11.8241789755       49.4740230348  TIP3      1351            0.0000000000
     12629      1415  TIP3      H2             -5.4031379496      -10.4753989997       49.6997966761  TIP3      1351            0.0000000000
     12630      1416  TIP3      OH2            -7.0067363411       -8.4988010962       52.1425447787  TIP3      1352            0.0000000000
     12631      1416  TIP3      H1             -7.7047975298       -8.1414695812       52.7229705163  TIP3      1352            0.0000000000
     12632      1416  TIP3      H2             -7.5396004063       -8.8909876829       51.4202487172  TIP3      1352            0.0000000000
     12633      1417  TIP3      OH2            -5.0104200843      -14.2830656671       41.2697938051  TIP3      1353            0.0000000000
     12634      1417  TIP3      H1             -5.5935377960      -13.9731221406       40.5474612504  TIP3      1353            0.0000000000
     12635      1417  TIP3      H2             -5.1359451229      -13.5646451630       41.9192192770  TIP3      1353            0.0000000000
     12636      1418  TIP3      OH2            -6.6151874973      -17.0650133578       39.7534446137  TIP3      1354            0.0000000000
     12637      1418  TIP3      H1             -6.5488938163      -16.4020110056       39.0596793512  TIP3      1354            0.0000000000
     12638      1418  TIP3      H2             -6.8309316894      -17.8847458176       39.2601281595  TIP3      1354            0.0000000000
     12639      1419  TIP3      OH2            -7.4811920969      -15.6326259716       45.4750944744  TIP3      1355            0.0000000000
     12640      1419  TIP3      H1             -7.6320246123      -16.5841477818       45.3982010317  TIP3      1355            0.0000000000
     12641      1419  TIP3      H2             -7.7885851267      -15.4540424228       46.3856988335  TIP3      1355            0.0000000000
     12642      1420  TIP3      OH2           -22.5046242240      -13.5361394549       49.5619921849  TIP3      1356            0.0000000000
     12643      1420  TIP3      H1            -22.3775578181      -13.6194688254       48.5890357497  TIP3      1356            0.0000000000
     12644      1420  TIP3      H2            -21.5828306515      -13.6936445677       49.8523172888  TIP3      1356            0.0000000000
     12645      1421  TIP3      OH2            -6.6020538328      -13.6700097365       55.1694682953  TIP3      1357            0.0000000000
     12646      1421  TIP3      H1             -5.9908366995      -14.4297533735       55.2742686537  TIP3      1357            0.0000000000
     12647      1421  TIP3      H2             -6.0091999925      -12.8885404770       55.1594416083  TIP3      1357            0.0000000000
     12648      1422  TIP3      OH2            -5.1117042751      -15.8177435185       55.7976840194  TIP3      1358            0.0000000000
     12649      1422  TIP3      H1             -6.0058781833      -16.1974612722       55.6593282539  TIP3      1358            0.0000000000
     12650      1422  TIP3      H2             -4.5502972883      -16.6157679108       55.7382882966  TIP3      1358            0.0000000000
     12651      1423  TIP3      OH2            -7.3454491523      -19.5512235944       38.9195491790  TIP3      1359            0.0000000000
     12652      1423  TIP3      H1             -6.7697956419      -20.0193265859       39.5484303434  TIP3      1359            0.0000000000
     12653      1423  TIP3      H2             -8.2141175577      -19.9698238135       39.0527605497  TIP3      1359            0.0000000000
     12654      1424  TIP3      OH2            -7.8571307141      -18.0365488632       43.8397280863  TIP3      1360            0.0000000000
     12655      1424  TIP3      H1             -7.5372686442      -18.9454549969       44.0358996008  TIP3      1360            0.0000000000
     12656      1424  TIP3      H2             -7.0233007720      -17.6295321771       43.5653895737  TIP3      1360            0.0000000000
     12657      1425  TIP3      OH2            -7.1840027505      -17.4870027584       49.3519700179  TIP3      1361            0.0000000000
     12658      1425  TIP3      H1             -6.2153738666      -17.3018237450       49.3423460551  TIP3      1361            0.0000000000
     12659      1425  TIP3      H2             -7.3590194251      -17.3851166601       50.3001499228  TIP3      1361            0.0000000000
     12660      1426  TIP3      OH2            -7.1212098238      -16.7775491142       52.1313708193  TIP3      1362            0.0000000000
     12661      1426  TIP3      H1             -8.0063465276      -16.4962369063       52.4422670628  TIP3      1362            0.0000000000
     12662      1426  TIP3      H2             -6.6803939992      -15.9229474366       51.9091068563  TIP3      1362            0.0000000000
     12663      1427  TIP3      OH2           -22.3811785537      -18.5309366821       54.9889367530  TIP3      1363            0.0000000000
     12664      1427  TIP3      H1            -21.6838007576      -18.4315273125       55.6670191957  TIP3      1363            0.0000000000
     12665      1427  TIP3      H2            -23.0508245091      -18.9007637685       55.5802167271  TIP3      1363            0.0000000000
     12666      1428  TIP3      OH2            -4.7599795607      -22.6742846283       57.5780192047  TIP3      1364            0.0000000000
     12667      1428  TIP3      H1             -4.6153538688      -23.3935042497       56.9236544053  TIP3      1364            0.0000000000
     12668      1428  TIP3      H2             -4.7971696092      -21.9234242255       56.9547468048  TIP3      1364            0.0000000000
     12669      1429  TIP3      OH2            -7.1323953842      -20.7776515324       43.9302622122  TIP3      1365            0.0000000000
     12670      1429  TIP3      H1             -6.9148190484      -21.1898745858       44.7980984885  TIP3      1365            0.0000000000
     12671      1429  TIP3      H2             -7.7593179014      -21.4285686292       43.5534763812  TIP3      1365            0.0000000000
     12672      1430  TIP3      OH2           -21.7618590363      -19.9344133624       48.7434511578  TIP3      1366            0.0000000000
     12673      1430  TIP3      H1            -21.2289274117      -20.7521635501       48.8184107423  TIP3      1366            0.0000000000
     12674      1430  TIP3      H2            -21.1017763853      -19.2505003959       48.9090714282  TIP3      1366            0.0000000000
     12675      1431  TIP3      OH2           -23.3927920211      -16.6835430238       49.2963881706  TIP3      1367            0.0000000000
     12676      1431  TIP3      H1            -22.7459028172      -17.1987907532       48.7887690284  TIP3      1367            0.0000000000
     12677      1431  TIP3      H2            -22.8096913139      -16.0657105944       49.7436398825  TIP3      1367            0.0000000000
     12678      1432  TIP3      OH2            -5.3200873176      -20.6672348813       55.7885063134  TIP3      1368            0.0000000000
     12679      1432  TIP3      H1             -6.2510617149      -20.3919032896       55.7667920777  TIP3      1368            0.0000000000
     12680      1432  TIP3      H2             -5.3461624902      -21.2519390443       55.0158687791  TIP3      1368            0.0000000000
     12681      1433  TIP3      OH2            -5.2858096960      -20.7417158567       40.6142482673  TIP3      1369            0.0000000000
     12682      1433  TIP3      H1             -4.9741357176      -21.4044795151       39.9496027078  TIP3      1369            0.0000000000
     12683      1433  TIP3      H2             -4.6300456448      -20.0315536733       40.5355729141  TIP3      1369            0.0000000000
     12684      1434  TIP3      OH2           -22.7479625335      -20.8175899340       44.0079817630  TIP3      1370            0.0000000000
     12685      1434  TIP3      H1            -23.6743717000      -20.5901535905       43.9578294288  TIP3      1370            0.0000000000
     12686      1434  TIP3      H2            -22.3560928170      -20.3749150103       43.2152227580  TIP3      1370            0.0000000000
     12687      1435  TIP3      OH2            -8.2801883399       -5.7428158517       45.5880487737  TIP3      1371            0.0000000000
     12688      1435  TIP3      H1             -7.5902642955       -6.0296522959       44.9617607186  TIP3      1371            0.0000000000
     12689      1435  TIP3      H2             -7.7794126352       -5.2412606236       46.2493052352  TIP3      1371            0.0000000000
     12690      1436  TIP3      OH2            23.8189667251      -21.7561541875       51.9239329994  TIP3      1372            0.0000000000
     12691      1436  TIP3      H1             23.2932021555      -21.9396163414       52.7061687566  TIP3      1372            0.0000000000
     12692      1436  TIP3      H2             23.2865227567      -21.2286863633       51.3128803781  TIP3      1372            0.0000000000
     12693      1437  TIP3      OH2           -20.8315178288       -8.8671218470       56.1438746110  TIP3      1373            0.0000000000
     12694      1437  TIP3      H1            -21.6624958189       -8.7084106137       55.6892231692  TIP3      1373            0.0000000000
     12695      1437  TIP3      H2            -21.0898255831       -8.9913754444       57.0636828366  TIP3      1373            0.0000000000
     12696      1438  TIP3      OH2           -17.9321704915       -7.8120264179       52.3784710122  TIP3      1374            0.0000000000
     12697      1438  TIP3      H1            -18.2503224803       -6.9327328029       52.1068590610  TIP3      1374            0.0000000000
     12698      1438  TIP3      H2            -17.0009172917       -7.7423272840       52.0727135815  TIP3      1374            0.0000000000
     12699      1439  TIP3      OH2           -14.0341923914       -6.3860366745       55.1567715768  TIP3      1375            0.0000000000
     12700      1439  TIP3      H1            -13.7633897683       -6.7431483485       56.0271851335  TIP3      1375            0.0000000000
     12701      1439  TIP3      H2            -13.1086585357       -6.1819396398       54.8961426765  TIP3      1375            0.0000000000
     12702      1440  TIP3      OH2           -10.9731378734       -4.5237161139       54.2813808621  TIP3      1376            0.0000000000
     12703      1440  TIP3      H1            -10.7190489656       -5.4643440450       54.2307629131  TIP3      1376            0.0000000000
     12704      1440  TIP3      H2            -10.9941350692       -4.5374115962       55.2583085733  TIP3      1376            0.0000000000
     12705      1441  TIP3      OH2            -6.3712899899      -22.5405151138       53.7126271567  TIP3      1377            0.0000000000
     12706      1441  TIP3      H1             -7.1594604516      -22.1656821199       53.2923852155  TIP3      1377            0.0000000000
     12707      1441  TIP3      H2             -6.1898046596      -23.3488754867       53.2131551575  TIP3      1377            0.0000000000
     12708      1442  TIP3      OH2           -20.6137020643       -4.6835668413       52.3290553189  TIP3      1378            0.0000000000
     12709      1442  TIP3      H1            -21.2761152140       -4.0699008497       51.9369755876  TIP3      1378            0.0000000000
     12710      1442  TIP3      H2            -20.8649516511       -4.6869638912       53.2614352270  TIP3      1378            0.0000000000
     12711      1443  TIP3      OH2           -18.0667166959       -5.0051869666       51.4120985806  TIP3      1379            0.0000000000
     12712      1443  TIP3      H1            -18.9518707187       -4.8290940532       51.7980315882  TIP3      1379            0.0000000000
     12713      1443  TIP3      H2            -18.0882753717       -4.4119289825       50.6398834422  TIP3      1379            0.0000000000
     12714      1444  TIP3      OH2           -13.3338253510       -5.1206001269       50.5825215734  TIP3      1380            0.0000000000
     12715      1444  TIP3      H1            -13.7910920850       -4.5500541641       49.9460874878  TIP3      1380            0.0000000000
     12716      1444  TIP3      H2            -13.1920183295       -4.5010961087       51.3371922189  TIP3      1380            0.0000000000
     12717      1445  TIP3      OH2           -11.0542575882       -6.3234667835       51.6229963649  TIP3      1381            0.0000000000
     12718      1445  TIP3      H1            -11.8858209317       -5.9998861284       51.2349685452  TIP3      1381            0.0000000000
     12719      1445  TIP3      H2            -10.5350777882       -5.5021368849       51.5958942726  TIP3      1381            0.0000000000
     12720      1446  TIP3      OH2            -8.4322200478       -4.7656341010       51.8011640838  TIP3      1382            0.0000000000
     12721      1446  TIP3      H1             -8.4813716737       -3.8032917180       51.5969356263  TIP3      1382            0.0000000000
     12722      1446  TIP3      H2             -8.2349401389       -5.1431004095       50.9235942279  TIP3      1382            0.0000000000
     12723      1447  TIP3      OH2           -21.0361334685       -5.9753944259       49.2368761405  TIP3      1383            0.0000000000
     12724      1447  TIP3      H1            -21.0741519476       -6.3903339280       50.1171783738  TIP3      1383            0.0000000000
     12725      1447  TIP3      H2            -20.2089971267       -6.3371584403       48.8698660882  TIP3      1383            0.0000000000
     12726      1448  TIP3      OH2           -18.9790989211       -7.2569166810       47.9382403556  TIP3      1384            0.0000000000
     12727      1448  TIP3      H1            -19.1101274064       -8.1893298573       48.1966434052  TIP3      1384            0.0000000000
     12728      1448  TIP3      H2            -18.1301958494       -7.0597284162       48.3849316929  TIP3      1384            0.0000000000
     12729      1449  TIP3      OH2           -16.3505469818       -6.7619340531       48.8466052666  TIP3      1385            0.0000000000
     12730      1449  TIP3      H1            -16.2064297542       -7.6902673492       48.5890590145  TIP3      1385            0.0000000000
     12731      1449  TIP3      H2            -16.2858055439       -6.8090610860       49.8138686131  TIP3      1385            0.0000000000
     12732      1450  TIP3      OH2           -12.9801033967      -20.9951328991       47.9881591013  TIP3      1386            0.0000000000
     12733      1450  TIP3      H1            -13.5701357836      -21.7176724433       48.2892132996  TIP3      1386            0.0000000000
     12734      1450  TIP3      H2            -12.3468844329      -21.5225527644       47.4798261834  TIP3      1386            0.0000000000
     12735      1451  TIP3      OH2            -7.6281997439      -22.4840800173       48.2298359531  TIP3      1387            0.0000000000
     12736      1451  TIP3      H1             -7.0824877623      -22.3757725600       47.4207457326  TIP3      1387            0.0000000000
     12737      1451  TIP3      H2             -8.5086627086      -22.7430441652       47.8998190553  TIP3      1387            0.0000000000
     12738      1452  TIP3      OH2            -6.0797054061      -21.7724879736       46.1932054442  TIP3      1388            0.0000000000
     12739      1452  TIP3      H1             -5.4290637869      -22.4062420357       45.8763039200  TIP3      1388            0.0000000000
     12740      1452  TIP3      H2             -5.5443570715      -20.9627982607       46.3714628887  TIP3      1388            0.0000000000
     12741      1453  TIP3      OH2           -20.4670021846      -22.5878973432       45.8264155289  TIP3      1389            0.0000000000
     12742      1453  TIP3      H1            -21.2414902021      -22.6030629685       45.2465896749  TIP3      1389            0.0000000000
     12743      1453  TIP3      H2            -20.0775523254      -23.4564653224       45.7102503817  TIP3      1389            0.0000000000
     12744      1454  TIP3      OH2           -21.7187188333      -22.3410918400       42.1017530870  TIP3      1390            0.0000000000
     12745      1454  TIP3      H1            -21.4020177038      -21.8976087446       41.3048159574  TIP3      1390            0.0000000000
     12746      1454  TIP3      H2            -22.6052455547      -21.9968658783       42.1467399468  TIP3      1390            0.0000000000
     12747      1455  TIP3      OH2           -16.0713907760      -22.3751277259       45.5245165368  TIP3      1391            0.0000000000
     12748      1455  TIP3      H1            -15.1326273743      -22.1426582143       45.5167695678  TIP3      1391            0.0000000000
     12749      1455  TIP3      H2            -16.1125513266      -22.9347754552       46.3176350306  TIP3      1391            0.0000000000
     12750      1456  TIP3      OH2           -10.4751563447      -22.5112868823       47.1678109434  TIP3      1392            0.0000000000
     12751      1456  TIP3      H1            -10.3321797813      -22.4283394451       46.2230947915  TIP3      1392            0.0000000000
     12752      1456  TIP3      H2            -10.6253155064      -23.4566054543       47.2975198116  TIP3      1392            0.0000000000
     12753      1457  TIP3      OH2            -9.0032560813      -22.3910148691       42.9618115002  TIP3      1393            0.0000000000
     12754      1457  TIP3      H1             -9.7886975710      -21.8237085891       42.8248167685  TIP3      1393            0.0000000000
     12755      1457  TIP3      H2             -9.3144520819      -23.1582799984       43.4531886622  TIP3      1393            0.0000000000
     12756      1458  TIP3      OH2           -21.7624182842       -6.7180065735       42.5271644833  TIP3      1394            0.0000000000
     12757      1458  TIP3      H1            -22.5322908213       -6.8331573351       41.9481245003  TIP3      1394            0.0000000000
     12758      1458  TIP3      H2            -21.8514931883       -5.7808939233       42.7470723580  TIP3      1394            0.0000000000
     12759      1459  TIP3      OH2           -19.9192130704      -20.7746114247       40.0137234071  TIP3      1395            0.0000000000
     12760      1459  TIP3      H1            -19.3748986844      -21.4264432414       39.5612345690  TIP3      1395            0.0000000000
     12761      1459  TIP3      H2            -19.3051027676      -20.5014191438       40.7267908656  TIP3      1395            0.0000000000
     12762      1460  TIP3      OH2           -15.0378874907      -20.5445312852       42.4670406413  TIP3      1396            0.0000000000
     12763      1460  TIP3      H1            -14.6486710251      -21.0861183830       43.1768865433  TIP3      1396            0.0000000000
     12764      1460  TIP3      H2            -14.8663037938      -19.6650823044       42.8600409106  TIP3      1396            0.0000000000
     12765      1461  TIP3      OH2           -12.9785387259       -5.4351434035       40.8828467675  TIP3      1397            0.0000000000
     12766      1461  TIP3      H1            -12.0414859238       -5.2807999627       40.6727234610  TIP3      1397            0.0000000000
     12767      1461  TIP3      H2            -13.1979760177       -6.0018555968       40.1140658485  TIP3      1397            0.0000000000
     12768      1462  TIP3      OH2            -6.3202728612       -5.9896612826       43.6428044696  TIP3      1398            0.0000000000
     12769      1462  TIP3      H1             -6.4906478500       -6.7760726847       43.0728846842  TIP3      1398            0.0000000000
     12770      1462  TIP3      H2             -6.3807721097       -5.2550267595       42.9942307018  TIP3      1398            0.0000000000
     12771      1463  TIP3      OH2           -20.5924234153      -21.8379443339       55.1954396305  TIP3      1399            0.0000000000
     12772      1463  TIP3      H1            -21.0439199786      -22.6417920872       55.5463179363  TIP3      1399            0.0000000000
     12773      1463  TIP3      H2            -19.7261277917      -21.9319956161       55.6462025727  TIP3      1399            0.0000000000
     12774      1464  TIP3      OH2           -18.5989427527      -22.5807614409       56.8958157977  TIP3      1400            0.0000000000
     12775      1464  TIP3      H1            -17.7032505800      -22.9199119218       56.7551095326  TIP3      1400            0.0000000000
     12776      1464  TIP3      H2            -19.0434150368      -23.3545781186       57.2671926611  TIP3      1400            0.0000000000
     12777      1465  TIP3      OH2           -20.0927492527       -6.0542869889       39.5375005591  TIP3      1401            0.0000000000
     12778      1465  TIP3      H1            -20.3407750966       -5.8948042531       40.4627819914  TIP3      1401            0.0000000000
     12779      1465  TIP3      H2            -19.2426227673       -6.5220180477       39.6662630709  TIP3      1401            0.0000000000
     12780      1466  TIP3      OH2           -10.1560890900       23.5961113304       57.0237655554  TIP3      1402            0.0000000000
     12781      1466  TIP3      H1            -10.2766864203       22.9554556613       57.7383645317  TIP3      1402            0.0000000000
     12782      1466  TIP3      H2             -9.2620329296       23.4528930977       56.6896744719  TIP3      1402            0.0000000000
     12783      1467  TIP3      OH2            -6.9857487773       -7.1857925816       55.6396464538  TIP3      1403            0.0000000000
     12784      1467  TIP3      H1             -7.8149370336       -7.3631788757       55.1358986036  TIP3      1403            0.0000000000
     12785      1467  TIP3      H2             -7.1932808041       -6.2654319712       55.8974945845  TIP3      1403            0.0000000000
     12786      1468  TIP3      OH2             7.4387290544      -13.3275352934       45.6192482329  TIP3      1404            0.0000000000
     12787      1468  TIP3      H1              7.3659420248      -12.3506972515       45.6590406929  TIP3      1404            0.0000000000
     12788      1468  TIP3      H2              6.6780583363      -13.5665637449       45.0630295762  TIP3      1404            0.0000000000
     12789      1469  TIP3      OH2             6.3243642169      -14.1605379448       49.1369320164  TIP3      1405            0.0000000000
     12790      1469  TIP3      H1              6.2324477153      -14.7288510533       49.9102963361  TIP3      1405            0.0000000000
     12791      1469  TIP3      H2              5.8285742767      -14.6270986051       48.4463603349  TIP3      1405            0.0000000000
     12792      1470  TIP3      OH2            -1.3953927132      -14.3919627280       50.7112926686  TIP3      1406            0.0000000000
     12793      1470  TIP3      H1             -1.3156932775      -15.0966184596       51.3874348898  TIP3      1406            0.0000000000
     12794      1470  TIP3      H2             -0.6367079058      -13.8370227273       50.9491819757  TIP3      1406            0.0000000000
     12795      1471  TIP3      OH2             9.8046709195      -11.0709069536       47.4619781840  TIP3      1407            0.0000000000
     12796      1471  TIP3      H1              9.5927507503      -11.8811772696       47.9434524206  TIP3      1407            0.0000000000
     12797      1471  TIP3      H2              9.9486550669      -10.4419138600       48.1907003604  TIP3      1407            0.0000000000
     12798      1472  TIP3      OH2            -0.4927059206       -9.9363001734       49.1613798213  TIP3      1408            0.0000000000
     12799      1472  TIP3      H1             -0.7592758179      -10.8399196008       48.8931685073  TIP3      1408            0.0000000000
     12800      1472  TIP3      H2              0.4722835727      -10.0910538444       49.2381944704  TIP3      1408            0.0000000000
     12801      1473  TIP3      OH2            -3.8458017702      -16.4173204748       44.7088503727  TIP3      1409            0.0000000000
     12802      1473  TIP3      H1             -4.2809340783      -15.5512631155       44.6300429146  TIP3      1409            0.0000000000
     12803      1473  TIP3      H2             -4.3886956641      -16.9745632140       44.1344583370  TIP3      1409            0.0000000000
     12804      1474  TIP3      OH2            -3.1042752917      -14.1653624699       46.8946248791  TIP3      1410            0.0000000000
     12805      1474  TIP3      H1             -2.8169568015      -15.0073834555       47.2971576247  TIP3      1410            0.0000000000
     12806      1474  TIP3      H2             -2.4530672628      -14.0510078225       46.1849370844  TIP3      1410            0.0000000000
     12807      1475  TIP3      OH2             7.0592187812       -5.9496025792       47.6875129881  TIP3      1411            0.0000000000
     12808      1475  TIP3      H1              7.7057426324       -6.6404205027       47.3951288053  TIP3      1411            0.0000000000
     12809      1475  TIP3      H2              6.8047006312       -6.3366158657       48.5344753166  TIP3      1411            0.0000000000
     12810      1476  TIP3      OH2             4.5734276153      -11.9988294010       49.6501606807  TIP3      1412            0.0000000000
     12811      1476  TIP3      H1              5.0863452335      -12.3949019482       48.9383264395  TIP3      1412            0.0000000000
     12812      1476  TIP3      H2              5.2558223157      -11.4430958778       50.0967906186  TIP3      1412            0.0000000000
     12813      1477  TIP3      OH2            13.2789149906      -20.1067302177       50.3628940191  TIP3      1413            0.0000000000
     12814      1477  TIP3      H1             13.3909717648      -19.4498134108       51.0920559860  TIP3      1413            0.0000000000
     12815      1477  TIP3      H2             13.7836518952      -19.6293705109       49.6831446376  TIP3      1413            0.0000000000
     12816      1478  TIP3      OH2             7.7997805949      -17.2526966511       49.9964299813  TIP3      1414            0.0000000000
     12817      1478  TIP3      H1              7.9760566002      -18.2124760970       49.9973930437  TIP3      1414            0.0000000000
     12818      1478  TIP3      H2              7.6993468661      -17.0990027471       49.0354156820  TIP3      1414            0.0000000000
     12819      1479  TIP3      OH2             0.8631463719      -19.0852837570       47.1573212257  TIP3      1415            0.0000000000
     12820      1479  TIP3      H1              1.0345737019      -18.2810094081       46.6295541405  TIP3      1415            0.0000000000
     12821      1479  TIP3      H2              0.5498823773      -19.7195715161       46.4783120671  TIP3      1415            0.0000000000
     12822      1480  TIP3      OH2             8.6916749252      -19.1439542368       45.5115442955  TIP3      1416            0.0000000000
     12823      1480  TIP3      H1              9.2976875225      -19.4088486263       46.2402540402  TIP3      1416            0.0000000000
     12824      1480  TIP3      H2              9.2156113749      -18.4564357555       45.0737104324  TIP3      1416            0.0000000000
     12825      1481  TIP3      OH2            -2.4749507593      -16.7075453415       47.9212604257  TIP3      1417            0.0000000000
     12826      1481  TIP3      H1             -1.7994188646      -17.2439092653       48.3698812521  TIP3      1417            0.0000000000
     12827      1481  TIP3      H2             -2.3618708908      -17.0037022576       46.9994460445  TIP3      1417            0.0000000000
     12828      1482  TIP3      OH2             2.6725620338      -15.1571708818       47.2608209493  TIP3      1418            0.0000000000
     12829      1482  TIP3      H1              3.3678535316      -15.7428823248       47.6084379622  TIP3      1418            0.0000000000
     12830      1482  TIP3      H2              2.1866803820      -15.7915089145       46.6990855223  TIP3      1418            0.0000000000
     12831      1483  TIP3      OH2            13.6510274473      -18.6457873933       52.6357368637  TIP3      1419            0.0000000000
     12832      1483  TIP3      H1             13.0663370528      -17.8650707287       52.5120800058  TIP3      1419            0.0000000000
     12833      1483  TIP3      H2             13.6791712820      -18.7154663819       53.5974696078  TIP3      1419            0.0000000000
     12834      1484  TIP3      OH2            -0.2117997107      -20.2162220880       51.1750477984  TIP3      1420            0.0000000000
     12835      1484  TIP3      H1             -0.4875221723      -19.6070020996       50.4498546974  TIP3      1420            0.0000000000
     12836      1484  TIP3      H2             -0.8607081109      -19.9830342540       51.8889011727  TIP3      1420            0.0000000000
     12837      1485  TIP3      OH2             7.0781031891      -10.7607872328       44.7703311981  TIP3      1421            0.0000000000
     12838      1485  TIP3      H1              6.8781278781      -11.0099122672       43.8557691168  TIP3      1421            0.0000000000
     12839      1485  TIP3      H2              6.8012591267       -9.8188314149       44.8040302247  TIP3      1421            0.0000000000
     12840      1486  TIP3      OH2             2.3162443875      -12.5885682103       51.4232685151  TIP3      1422            0.0000000000
     12841      1486  TIP3      H1              1.6547923003      -11.9172352631       51.6822031218  TIP3      1422            0.0000000000
     12842      1486  TIP3      H2              3.0430644859      -12.0026002456       51.1228674380  TIP3      1422            0.0000000000
     12843      1487  TIP3      OH2            10.4470858040      -19.6226828068       47.5854645779  TIP3      1423            0.0000000000
     12844      1487  TIP3      H1             10.2776426878      -20.4505380445       48.0606232434  TIP3      1423            0.0000000000
     12845      1487  TIP3      H2             11.1520445991      -19.2443575666       48.1380820103  TIP3      1423            0.0000000000
     12846      1488  TIP3      OH2            -0.5885731548      -18.3287939839       49.2472854277  TIP3      1424            0.0000000000
     12847      1488  TIP3      H1              0.0543210240      -17.6512701071       49.5461086712  TIP3      1424            0.0000000000
     12848      1488  TIP3      H2             -0.0891591423      -18.7737499595       48.5107367883  TIP3      1424            0.0000000000
     12849      1489  TIP3      OH2             0.7773151858      -10.5772240972       52.2501720936  TIP3      1425            0.0000000000
     12850      1489  TIP3      H1              0.7594137499       -9.6586406532       51.9206678340  TIP3      1425            0.0000000000
     12851      1489  TIP3      H2             -0.0972321587      -10.6415327197       52.7027700043  TIP3      1425            0.0000000000
     12852      1490  TIP3      OH2            -3.1348151934      -11.0026415893       43.0297493550  TIP3      1426            0.0000000000
     12853      1490  TIP3      H1             -3.3740993319      -10.6077119177       42.1724342370  TIP3      1426            0.0000000000
     12854      1490  TIP3      H2             -3.0435457539      -10.2064008232       43.5897868842  TIP3      1426            0.0000000000
     12855      1491  TIP3      OH2            10.4928718356       -9.2473009877       49.8308462285  TIP3      1427            0.0000000000
     12856      1491  TIP3      H1              9.5060021044       -9.1878869982       49.9495693974  TIP3      1427            0.0000000000
     12857      1491  TIP3      H2             10.7032242663       -8.3452378669       49.5610619283  TIP3      1427            0.0000000000
     12858      1492  TIP3      OH2            10.8620600240      -21.0255057269       51.3279273473  TIP3      1428            0.0000000000
     12859      1492  TIP3      H1             10.0856356778      -20.4967459442       51.0934372478  TIP3      1428            0.0000000000
     12860      1492  TIP3      H2             11.5067972448      -20.6465797561       50.7007741105  TIP3      1428            0.0000000000
     12861      1493  TIP3      OH2             3.9449753462      -22.6496531645       48.7728221393  TIP3      1429            0.0000000000
     12862      1493  TIP3      H1              3.8002870051      -23.6100789375       48.6764890325  TIP3      1429            0.0000000000
     12863      1493  TIP3      H2              3.0389341474      -22.3413702697       48.9126102797  TIP3      1429            0.0000000000
     12864      1494  TIP3      OH2             8.7382892519       -7.5091495547       46.4053236582  TIP3      1430            0.0000000000
     12865      1494  TIP3      H1              9.1351512106       -8.2393092613       45.8859932447  TIP3      1430            0.0000000000
     12866      1494  TIP3      H2              9.2184201441       -6.7410719048       46.0262170783  TIP3      1430            0.0000000000
     12867      1495  TIP3      OH2             9.9684188288       -9.6003371207       44.9391290152  TIP3      1431            0.0000000000
     12868      1495  TIP3      H1              9.6401332056      -10.2724404335       44.3211646997  TIP3      1431            0.0000000000
     12869      1495  TIP3      H2              9.9897871401      -10.1089940789       45.7730698832  TIP3      1431            0.0000000000
     12870      1496  TIP3      OH2            11.5558792712      -10.9968410121       53.4058151973  TIP3      1432            0.0000000000
     12871      1496  TIP3      H1             11.7103716003      -11.6763553661       52.7036312879  TIP3      1432            0.0000000000
     12872      1496  TIP3      H2             11.7718844774      -10.1781059212       52.9304256830  TIP3      1432            0.0000000000
     12873      1497  TIP3      OH2             6.0278843207      -14.1398972554       43.1412238270  TIP3      1433            0.0000000000
     12874      1497  TIP3      H1              5.3622912288      -13.5145760364       42.8042303484  TIP3      1433            0.0000000000
     12875      1497  TIP3      H2              6.7706279625      -13.9924253340       42.5260035653  TIP3      1433            0.0000000000
     12876      1498  TIP3      OH2             6.1555838080      -15.5047233085       40.1762491849  TIP3      1434            0.0000000000
     12877      1498  TIP3      H1              6.8669631069      -15.4894618638       40.8401123939  TIP3      1434            0.0000000000
     12878      1498  TIP3      H2              6.4533210724      -16.2502103056       39.6483620518  TIP3      1434            0.0000000000
     12879      1499  TIP3      OH2            13.4974195869      -14.6219250114       51.5164909533  TIP3      1435            0.0000000000
     12880      1499  TIP3      H1             12.8053314565      -13.9388529507       51.4674179480  TIP3      1435            0.0000000000
     12881      1499  TIP3      H2             13.8282856103      -14.5286665098       50.5980338143  TIP3      1435            0.0000000000
     12882      1500  TIP3      OH2             9.5187740763      -13.9628817088       44.0662688540  TIP3      1436            0.0000000000
     12883      1500  TIP3      H1              8.8141670288      -13.6672438873       44.6965265074  TIP3      1436            0.0000000000
     12884      1500  TIP3      H2             10.0475801274      -14.5515634895       44.6428398986  TIP3      1436            0.0000000000
     12885      1501  TIP3      OH2             9.4483987440      -15.7277263104       53.2427875407  TIP3      1437            0.0000000000
     12886      1501  TIP3      H1              9.4420842925      -14.8934168948       53.7409492148  TIP3      1437            0.0000000000
     12887      1501  TIP3      H2              8.8228037894      -15.4584538100       52.5406799349  TIP3      1437            0.0000000000
     12888      1502  TIP3      OH2             1.1220304138      -13.2283264981       46.0131802405  TIP3      1438            0.0000000000
     12889      1502  TIP3      H1              0.8075458274      -13.6245847768       45.1638307198  TIP3      1438            0.0000000000
     12890      1502  TIP3      H2              1.7330708278      -13.9207771552       46.3542122635  TIP3      1438            0.0000000000
     12891      1503  TIP3      OH2             2.3997279567       -9.8758747306       48.7113577174  TIP3      1439            0.0000000000
     12892      1503  TIP3      H1              2.4851205894      -10.3855212837       47.8955599205  TIP3      1439            0.0000000000
     12893      1503  TIP3      H2              3.2275539349      -10.1274492297       49.1821973409  TIP3      1439            0.0000000000
     12894      1504  TIP3      OH2             1.4304461950      -14.4766255151       49.7029913278  TIP3      1440            0.0000000000
     12895      1504  TIP3      H1              1.9615732577      -14.4102941815       48.8844757386  TIP3      1440            0.0000000000
     12896      1504  TIP3      H2              1.8469797049      -13.7896056562       50.2762281642  TIP3      1440            0.0000000000
     12897      1505  TIP3      OH2             7.9776518943       -8.8918228406       50.4176987811  TIP3      1441            0.0000000000
     12898      1505  TIP3      H1              7.4932308910       -8.2882324420       50.9911796014  TIP3      1441            0.0000000000
     12899      1505  TIP3      H2              7.5892047659       -9.7327649006       50.7614108652  TIP3      1441            0.0000000000
     12900      1506  TIP3      OH2             2.3468947411      -10.0997697146       54.4315452278  TIP3      1442            0.0000000000
     12901      1506  TIP3      H1              1.9590778348       -9.3057126996       54.8516566907  TIP3      1442            0.0000000000
     12902      1506  TIP3      H2              1.7568219328      -10.2544437236       53.6555548652  TIP3      1442            0.0000000000
     12903      1507  TIP3      OH2             8.4072942090      -14.6703577503       41.7414034126  TIP3      1443            0.0000000000
     12904      1507  TIP3      H1              8.9447994292      -14.5030866699       42.5557627322  TIP3      1443            0.0000000000
     12905      1507  TIP3      H2              8.8841848704      -14.1797383346       41.0293781792  TIP3      1443            0.0000000000
     12906      1508  TIP3      OH2            -0.6462048973      -13.9023293425       53.4860114802  TIP3      1444            0.0000000000
     12907      1508  TIP3      H1             -0.5746547719      -13.2462791870       54.2035956873  TIP3      1444            0.0000000000
     12908      1508  TIP3      H2             -1.6061623727      -13.8606907878       53.3363565067  TIP3      1444            0.0000000000
     12909      1509  TIP3      OH2             6.1325066669       -7.9560360451       45.2134446942  TIP3      1445            0.0000000000
     12910      1509  TIP3      H1              6.4911712255       -7.6839955976       46.0671064145  TIP3      1445            0.0000000000
     12911      1509  TIP3      H2              5.5556449122       -7.2181430689       44.9766198452  TIP3      1445            0.0000000000
     12912      1510  TIP3      OH2             0.6623084451       -8.0347935391       55.1034813622  TIP3      1446            0.0000000000
     12913      1510  TIP3      H1              0.5868522052       -8.1220528423       54.1365607270  TIP3      1446            0.0000000000
     12914      1510  TIP3      H2             -0.2622038681       -8.1794963455       55.3889051654  TIP3      1446            0.0000000000
     12915      1511  TIP3      OH2            12.1075652226      -22.9345497500       41.6126089603  TIP3      1447            0.0000000000
     12916      1511  TIP3      H1             11.2455620521      -22.8710483392       42.0670392645  TIP3      1447            0.0000000000
     12917      1511  TIP3      H2             12.3926975793      -22.0071457240       41.6074368146  TIP3      1447            0.0000000000
     12918      1512  TIP3      OH2             0.0532714568      -14.2429821101       43.6765841113  TIP3      1448            0.0000000000
     12919      1512  TIP3      H1             -0.2104364542      -13.4572529980       43.1506869115  TIP3      1448            0.0000000000
     12920      1512  TIP3      H2             -0.5689755683      -14.9138992287       43.3841027041  TIP3      1448            0.0000000000
     12921      1513  TIP3      OH2            13.2406255966       -8.6177343740       40.0368778843  TIP3      1449            0.0000000000
     12922      1513  TIP3      H1             13.4282100511       -7.6767311665       40.2004232200  TIP3      1449            0.0000000000
     12923      1513  TIP3      H2             14.1539097283       -8.9573378197       40.0594209083  TIP3      1449            0.0000000000
     12924      1514  TIP3      OH2            -3.8224536333      -11.7783650716       52.5624182068  TIP3      1450            0.0000000000
     12925      1514  TIP3      H1             -4.2636459597      -11.8657663112       51.6981681053  TIP3      1450            0.0000000000
     12926      1514  TIP3      H2             -3.7127350335      -12.7279350216       52.7765020641  TIP3      1450            0.0000000000
     12927      1515  TIP3      OH2            -4.0716053658       -9.0494569908       49.3191018158  TIP3      1451            0.0000000000
     12928      1515  TIP3      H1             -3.1127557969       -9.1659033992       49.2970490233  TIP3      1451            0.0000000000
     12929      1515  TIP3      H2             -4.1454831316       -8.2193329984       49.8053756359  TIP3      1451            0.0000000000
     12930      1516  TIP3      OH2            14.2190700260       -8.3983235869       55.2147189060  TIP3      1452            0.0000000000
     12931      1516  TIP3      H1             14.0812029497       -9.3412284787       55.0327866192  TIP3      1452            0.0000000000
     12932      1516  TIP3      H2             13.3042188826       -8.1604347683       55.4897333928  TIP3      1452            0.0000000000
     12933      1517  TIP3      OH2             5.1993322281       -8.8998663458       54.1392817044  TIP3      1453            0.0000000000
     12934      1517  TIP3      H1              5.1552046617       -7.9457875318       54.3621855403  TIP3      1453            0.0000000000
     12935      1517  TIP3      H2              4.2705484547       -9.1652786830       54.0441583691  TIP3      1453            0.0000000000
     12936      1518  TIP3      OH2             5.6000012969       -5.0703095814       43.6341854176  TIP3      1454            0.0000000000
     12937      1518  TIP3      H1              5.4676692433       -5.1265117551       42.6705297236  TIP3      1454            0.0000000000
     12938      1518  TIP3      H2              5.5853921492       -4.1111700655       43.8141484933  TIP3      1454            0.0000000000
     12939      1519  TIP3      OH2            -0.7805498239       -6.1814167109       45.4871833620  TIP3      1455            0.0000000000
     12940      1519  TIP3      H1             -0.6253355435       -6.5961352016       46.3662205056  TIP3      1455            0.0000000000
     12941      1519  TIP3      H2             -1.6285779099       -6.5967382182       45.2503565968  TIP3      1455            0.0000000000
     12942      1520  TIP3      OH2             8.6237279000       -5.8630883532       40.6376558913  TIP3      1456            0.0000000000
     12943      1520  TIP3      H1              9.1057259755       -6.6077497414       40.2153131502  TIP3      1456            0.0000000000
     12944      1520  TIP3      H2              8.6798297989       -6.0979935102       41.5844625598  TIP3      1456            0.0000000000
     12945      1521  TIP3      OH2             8.3405360997       -5.9028504789       43.4169253866  TIP3      1457            0.0000000000
     12946      1521  TIP3      H1              7.3746783970       -5.8258852812       43.5555698974  TIP3      1457            0.0000000000
     12947      1521  TIP3      H2              8.5421042421       -6.6624187108       43.9840687628  TIP3      1457            0.0000000000
     12948      1522  TIP3      OH2            11.3234197732      -16.8886060183       55.4633760064  TIP3      1458            0.0000000000
     12949      1522  TIP3      H1             10.8287049057      -16.4371730697       54.7588142504  TIP3      1458            0.0000000000
     12950      1522  TIP3      H2             11.2931656494      -17.8111788285       55.1665856546  TIP3      1458            0.0000000000
     12951      1523  TIP3      OH2            -1.5254751314      -10.4733569071       53.4889462377  TIP3      1459            0.0000000000
     12952      1523  TIP3      H1             -1.3212094329      -10.8258691616       54.3815700087  TIP3      1459            0.0000000000
     12953      1523  TIP3      H2             -2.3987742329      -10.8613724843       53.2728794025  TIP3      1459            0.0000000000
     12954      1524  TIP3      OH2             1.1629987803      -21.4199173694       49.2749362657  TIP3      1460            0.0000000000
     12955      1524  TIP3      H1              0.3175701330      -21.8510607300       48.9951628996  TIP3      1460            0.0000000000
     12956      1524  TIP3      H2              0.8428873878      -20.9575753591       50.0696480813  TIP3      1460            0.0000000000
     12957      1525  TIP3      OH2             5.8073623118      -22.0571674319       53.0133652609  TIP3      1461            0.0000000000
     12958      1525  TIP3      H1              6.2720783757      -22.7226654051       53.5271643063  TIP3      1461            0.0000000000
     12959      1525  TIP3      H2              4.9271432570      -22.4304966692       52.9839354353  TIP3      1461            0.0000000000
     12960      1526  TIP3      OH2             9.0538568332      -18.5155001778       53.6779872551  TIP3      1462            0.0000000000
     12961      1526  TIP3      H1              8.4865730590      -18.6954693659       54.4636852572  TIP3      1462            0.0000000000
     12962      1526  TIP3      H2              8.9040497282      -17.5792836823       53.4592419982  TIP3      1462            0.0000000000
     12963      1527  TIP3      OH2             9.8474964045      -13.6213108547       39.6681642690  TIP3      1463            0.0000000000
     12964      1527  TIP3      H1              9.7691586949      -13.7935072383       38.7028037169  TIP3      1463            0.0000000000
     12965      1527  TIP3      H2             10.7101861244      -13.1835838797       39.6560910565  TIP3      1463            0.0000000000
     12966      1528  TIP3      OH2             5.4644347452      -19.7389126978       40.1254838808  TIP3      1464            0.0000000000
     12967      1528  TIP3      H1              5.1059832539      -19.8138571533       41.0244152743  TIP3      1464            0.0000000000
     12968      1528  TIP3      H2              5.1063886306      -20.5800240455       39.7738872175  TIP3      1464            0.0000000000
     12969      1529  TIP3      OH2             1.2681756320      -16.9907007941       50.6965711240  TIP3      1465            0.0000000000
     12970      1529  TIP3      H1              0.5384090708      -17.0050158587       51.3444948107  TIP3      1465            0.0000000000
     12971      1529  TIP3      H2              1.2043473260      -16.0887670923       50.3091316068  TIP3      1465            0.0000000000
     12972      1530  TIP3      OH2             1.2213847652      -16.8894734702       45.5188053256  TIP3      1466            0.0000000000
     12973      1530  TIP3      H1              0.2792265602      -17.1494145402       45.4346948829  TIP3      1466            0.0000000000
     12974      1530  TIP3      H2              1.5815208172      -17.2019508680       44.6637167204  TIP3      1466            0.0000000000
     12975      1531  TIP3      OH2             6.7498876911      -16.3756290522       44.3156544674  TIP3      1467            0.0000000000
     12976      1531  TIP3      H1              6.3580155106      -15.5543914160       43.9374990678  TIP3      1467            0.0000000000
     12977      1531  TIP3      H2              7.4220020163      -16.5709010702       43.6426634126  TIP3      1467            0.0000000000
     12978      1532  TIP3      OH2             5.7568474838      -16.1884280088       55.7488318900  TIP3      1468            0.0000000000
     12979      1532  TIP3      H1              5.2682186391      -17.0080907357       56.0224190493  TIP3      1468            0.0000000000
     12980      1532  TIP3      H2              6.6038275167      -16.2800780109       56.2173710431  TIP3      1468            0.0000000000
     12981      1533  TIP3      OH2             7.7659103095      -16.8981315253       47.1760108968  TIP3      1469            0.0000000000
     12982      1533  TIP3      H1              7.4646255563      -16.3236033174       46.4504486720  TIP3      1469            0.0000000000
     12983      1533  TIP3      H2              7.8416325879      -17.7445390218       46.7104895027  TIP3      1469            0.0000000000
     12984      1534  TIP3      OH2            -1.1276486181      -16.7617653104       52.3283731357  TIP3      1470            0.0000000000
     12985      1534  TIP3      H1             -0.9967229995      -16.3636137017       53.2056272786  TIP3      1470            0.0000000000
     12986      1534  TIP3      H2             -1.5574696688      -17.6000909069       52.5590618592  TIP3      1470            0.0000000000
     12987      1535  TIP3      OH2             2.2125305805      -19.3945972548       39.2178356481  TIP3      1471            0.0000000000
     12988      1535  TIP3      H1              1.7288204584      -19.8135557590       39.9675682303  TIP3      1471            0.0000000000
     12989      1535  TIP3      H2              1.5264223121      -18.9459647164       38.7026193716  TIP3      1471            0.0000000000
     12990      1536  TIP3      OH2            -4.4369511937      -19.6546378843       46.3892438057  TIP3      1472            0.0000000000
     12991      1536  TIP3      H1             -3.7168433685      -19.6715144493       47.0474303293  TIP3      1472            0.0000000000
     12992      1536  TIP3      H2             -4.0346987239      -20.0306416232       45.5782847789  TIP3      1472            0.0000000000
     12993      1537  TIP3      OH2            -3.2228080581      -18.9281430520       41.7144313147  TIP3      1473            0.0000000000
     12994      1537  TIP3      H1             -2.6821085769      -18.3465182128       41.1484562958  TIP3      1473            0.0000000000
     12995      1537  TIP3      H2             -3.9011327467      -18.2903951993       42.0096688004  TIP3      1473            0.0000000000
     12996      1538  TIP3      OH2             6.9439044370      -15.3291431567       51.6777511647  TIP3      1474            0.0000000000
     12997      1538  TIP3      H1              7.3452462288      -16.0291858099       51.1141668252  TIP3      1474            0.0000000000
     12998      1538  TIP3      H2              6.4650652047      -15.8531219738       52.3471131848  TIP3      1474            0.0000000000
     12999      1539  TIP3      OH2             3.7593034029      -19.2651542602       46.5625556803  TIP3      1475            0.0000000000
     13000      1539  TIP3      H1              2.8291550400      -19.4082917194       46.8400401019  TIP3      1475            0.0000000000
     13001      1539  TIP3      H2              4.2422061001      -19.5569384562       47.3555418470  TIP3      1475            0.0000000000
     13002      1540  TIP3      OH2            -1.4271310458      -17.7714928668       45.3979119131  TIP3      1476            0.0000000000
     13003      1540  TIP3      H1             -2.3130821723      -17.6539720100       44.9924669266  TIP3      1476            0.0000000000
     13004      1540  TIP3      H2             -1.1383414045      -18.6322226093       45.0272322477  TIP3      1476            0.0000000000
     13005      1541  TIP3      OH2             2.2088088253      -17.7308127146       43.0569198908  TIP3      1477            0.0000000000
     13006      1541  TIP3      H1              3.1701288658      -17.6446893921       43.1894996388  TIP3      1477            0.0000000000
     13007      1541  TIP3      H2              1.9688268188      -17.0531912726       42.3975177329  TIP3      1477            0.0000000000
     13008      1542  TIP3      OH2             8.1936625191      -20.1944825035       49.7643785772  TIP3      1478            0.0000000000
     13009      1542  TIP3      H1              7.5119244116      -20.0849263565       50.4567965686  TIP3      1478            0.0000000000
     13010      1542  TIP3      H2              7.6854462308      -20.4474078845       48.9820264487  TIP3      1478            0.0000000000
     13011      1543  TIP3      OH2             0.9306184072      -16.5652820637       40.6315059436  TIP3      1479            0.0000000000
     13012      1543  TIP3      H1              0.4010173443      -16.9587514111       39.9179348266  TIP3      1479            0.0000000000
     13013      1543  TIP3      H2              1.7486149164      -16.3531101683       40.1557605210  TIP3      1479            0.0000000000
     13014      1544  TIP3      OH2            11.3779300072       -4.4845115726       56.1308876949  TIP3      1480            0.0000000000
     13015      1544  TIP3      H1             11.5937575555       -3.9964993183       55.3223446357  TIP3      1480            0.0000000000
     13016      1544  TIP3      H2             12.0801647670       -4.1515354464       56.7108206268  TIP3      1480            0.0000000000
     13017      1545  TIP3      OH2            -0.9675217206      -11.9944845237       55.7008441885  TIP3      1481            0.0000000000
     13018      1545  TIP3      H1             -0.2335244958      -11.7535763615       56.2922934684  TIP3      1481            0.0000000000
     13019      1545  TIP3      H2             -1.7267089607      -11.9632783124       56.3211614758  TIP3      1481            0.0000000000
     13020      1546  TIP3      OH2             5.0368460140      -16.5921066293       48.4423436044  TIP3      1482            0.0000000000
     13021      1546  TIP3      H1              5.6470992102      -17.1206774120       47.9159905789  TIP3      1482            0.0000000000
     13022      1546  TIP3      H2              4.8659632025      -17.1668881093       49.2016985341  TIP3      1482            0.0000000000
     13023      1547  TIP3      OH2            -0.0098404911      -20.4474305937       44.8547481966  TIP3      1483            0.0000000000
     13024      1547  TIP3      H1             -0.3134108909      -21.3672425674       44.9275278561  TIP3      1483            0.0000000000
     13025      1547  TIP3      H2              0.8137442262      -20.5651768321       44.3567297681  TIP3      1483            0.0000000000
     13026      1548  TIP3      OH2             3.7220239432      -18.2490269656       50.7997856720  TIP3      1484            0.0000000000
     13027      1548  TIP3      H1              2.8865139272      -17.7383447745       50.9072232596  TIP3      1484            0.0000000000
     13028      1548  TIP3      H2              4.2542002665      -17.9162556435       51.5478703266  TIP3      1484            0.0000000000
     13029      1549  TIP3      OH2             4.2697281040      -12.0554277678       42.5739642669  TIP3      1485            0.0000000000
     13030      1549  TIP3      H1              3.4657623019      -12.5034881952       42.2256863441  TIP3      1485            0.0000000000
     13031      1549  TIP3      H2              4.0127478532      -11.8818267928       43.5028213184  TIP3      1485            0.0000000000
     13032      1550  TIP3      OH2            11.4692569609      -12.7376355466       51.3940686190  TIP3      1486            0.0000000000
     13033      1550  TIP3      H1             12.0555928869      -12.3847449066       50.6915286153  TIP3      1486            0.0000000000
     13034      1550  TIP3      H2             10.6444091234      -12.8277760437       50.8810753125  TIP3      1486            0.0000000000
     13035      1551  TIP3      OH2             8.1026878509      -19.2311382980       40.7143819519  TIP3      1487            0.0000000000
     13036      1551  TIP3      H1              7.1418505639      -19.0948130110       40.5925376163  TIP3      1487            0.0000000000
     13037      1551  TIP3      H2              8.4257794926      -18.3886037332       41.1009828802  TIP3      1487            0.0000000000
     13038      1552  TIP3      OH2             5.8047146998      -11.7724530447       53.8378011913  TIP3      1488            0.0000000000
     13039      1552  TIP3      H1              5.3942827362      -12.1845983707       54.6005038705  TIP3      1488            0.0000000000
     13040      1552  TIP3      H2              5.4862055813      -10.8526592928       53.8703150080  TIP3      1488            0.0000000000
     13041      1553  TIP3      OH2             8.8378634146      -17.3044960269       42.3132733883  TIP3      1489            0.0000000000
     13042      1553  TIP3      H1              9.6981934345      -17.4280691738       42.7727452024  TIP3      1489            0.0000000000
     13043      1553  TIP3      H2              8.9567525631      -16.4646078085       41.8346411886  TIP3      1489            0.0000000000
     13044      1554  TIP3      OH2            -0.6114655206      -12.6149857340       48.3557660304  TIP3      1490            0.0000000000
     13045      1554  TIP3      H1              0.0183594705      -12.7292853588       47.6188922071  TIP3      1490            0.0000000000
     13046      1554  TIP3      H2             -0.5473453096      -13.4603148020       48.8331207434  TIP3      1490            0.0000000000
     13047      1555  TIP3      OH2             6.3450002594      -10.5834236159       41.5947843539  TIP3      1491            0.0000000000
     13048      1555  TIP3      H1              5.9992292521       -9.7290690826       41.9342934746  TIP3      1491            0.0000000000
     13049      1555  TIP3      H2              5.6176878804      -11.2003871152       41.8263399185  TIP3      1491            0.0000000000
     13050      1556  TIP3      OH2            -3.6293303134      -14.2475028853       53.6110385877  TIP3      1492            0.0000000000
     13051      1556  TIP3      H1             -3.4884639971      -14.6961588677       54.4681712030  TIP3      1492            0.0000000000
     13052      1556  TIP3      H2             -4.2562118941      -14.8399689330       53.1565227519  TIP3      1492            0.0000000000
     13053      1557  TIP3      OH2             3.3892794706      -14.6727836630       55.7699650911  TIP3      1493            0.0000000000
     13054      1557  TIP3      H1              3.0470238649      -15.0300901768       54.9353836348  TIP3      1493            0.0000000000
     13055      1557  TIP3      H2              4.3004489602      -15.0304430255       55.7692326814  TIP3      1493            0.0000000000
     13056      1558  TIP3      OH2             8.1216463910       -9.3369995798       53.7777824327  TIP3      1494            0.0000000000
     13057      1558  TIP3      H1              7.2049232953       -9.2059966342       53.4725302416  TIP3      1494            0.0000000000
     13058      1558  TIP3      H2              7.9967129972       -9.0310729822       54.6971937510  TIP3      1494            0.0000000000
     13059      1559  TIP3      OH2            13.7031939120      -17.1511188308       42.1421816560  TIP3      1495            0.0000000000
     13060      1559  TIP3      H1             13.1499627049      -17.4082627112       41.3785909134  TIP3      1495            0.0000000000
     13061      1559  TIP3      H2             13.8060776163      -16.1971967951       41.9226571630  TIP3      1495            0.0000000000
     13062      1560  TIP3      OH2            13.7249739312      -11.3122143986       54.9415499530  TIP3      1496            0.0000000000
     13063      1560  TIP3      H1             12.8261910414      -11.0908865056       54.5886997988  TIP3      1496            0.0000000000
     13064      1560  TIP3      H2             14.2601877127      -11.3358815211       54.1166073155  TIP3      1496            0.0000000000
     13065      1561  TIP3      OH2            11.9651834606       -8.3441987451       42.5047823110  TIP3      1497            0.0000000000
     13066      1561  TIP3      H1             11.6606285896       -9.1808201402       42.8771679518  TIP3      1497            0.0000000000
     13067      1561  TIP3      H2             12.3568022524       -8.5872142294       41.6493720265  TIP3      1497            0.0000000000
     13068      1562  TIP3      OH2             9.2262370397      -13.5194214271       49.6588323067  TIP3      1498            0.0000000000
     13069      1562  TIP3      H1              8.2891259429      -13.7214684503       49.5006314906  TIP3      1498            0.0000000000
     13070      1562  TIP3      H2              9.6784708040      -14.2415409475       49.1709565168  TIP3      1498            0.0000000000
     13071      1563  TIP3      OH2             1.7673511952       -9.1721869051       45.7520806407  TIP3      1499            0.0000000000
     13072      1563  TIP3      H1              2.2515470175       -8.3587162064       45.5435353696  TIP3      1499            0.0000000000
     13073      1563  TIP3      H2              0.8885764129       -8.9581177449       45.4085156259  TIP3      1499            0.0000000000
     13074      1564  TIP3      OH2            -2.4658637570      -14.3566232395       40.3197630027  TIP3      1500            0.0000000000
     13075      1564  TIP3      H1             -1.9016944297      -13.6826613327       40.7384458079  TIP3      1500            0.0000000000
     13076      1564  TIP3      H2             -3.3697244638      -14.0574761342       40.5439299414  TIP3      1500            0.0000000000
     13077      1565  TIP3      OH2             3.1469642969      -11.5040263588       45.2270640623  TIP3      1501            0.0000000000
     13078      1565  TIP3      H1              2.8040609174      -10.6000177596       45.3490451071  TIP3      1501            0.0000000000
     13079      1565  TIP3      H2              2.4736267975      -12.0328475814       45.7011029245  TIP3      1501            0.0000000000
     13080      1566  TIP3      OH2             3.5055080156       -6.8959175362       52.0314895383  TIP3      1502            0.0000000000
     13081      1566  TIP3      H1              4.0795841883       -6.4922795716       51.3678972360  TIP3      1502            0.0000000000
     13082      1566  TIP3      H2              4.0451468763       -7.7195987865       52.1161045738  TIP3      1502            0.0000000000
     13083      1567  TIP3      OH2             1.8528708658       -6.5428138891       44.7636612885  TIP3      1503            0.0000000000
     13084      1567  TIP3      H1              0.8921419794       -6.3964716123       44.9238404605  TIP3      1503            0.0000000000
     13085      1567  TIP3      H2              2.2271908245       -5.7046856484       45.0928454080  TIP3      1503            0.0000000000
     13086      1568  TIP3      OH2             7.2574034497      -11.3743103875       51.2797038234  TIP3      1504            0.0000000000
     13087      1568  TIP3      H1              6.8151901332      -11.4939649819       52.1453719182  TIP3      1504            0.0000000000
     13088      1568  TIP3      H2              7.7791757677      -12.1644979260       51.1360027158  TIP3      1504            0.0000000000
     13089      1569  TIP3      OH2             9.5161866160      -10.2288375344       40.3767569860  TIP3      1505            0.0000000000
     13090      1569  TIP3      H1              9.7991325399      -10.7274738693       41.1692601174  TIP3      1505            0.0000000000
     13091      1569  TIP3      H2              8.5656206297      -10.4349701089       40.4284555204  TIP3      1505            0.0000000000
     13092      1570  TIP3      OH2            10.0000266450       -6.7674026608       53.7164993338  TIP3      1506            0.0000000000
     13093      1570  TIP3      H1              9.2390014797       -7.2777084653       53.3569299689  TIP3      1506            0.0000000000
     13094      1570  TIP3      H2             10.0197856981       -6.0487774607       53.0608268516  TIP3      1506            0.0000000000
     13095      1571  TIP3      OH2            13.9428973290       -5.9140569461       40.6480563861  TIP3      1507            0.0000000000
     13096      1571  TIP3      H1             14.6105108388       -5.2432045591       40.3961251152  TIP3      1507            0.0000000000
     13097      1571  TIP3      H2             13.2272442387       -5.3031915907       40.9275851166  TIP3      1507            0.0000000000
     13098      1572  TIP3      OH2            -1.9646057690      -19.5886184861       53.1669063712  TIP3      1508            0.0000000000
     13099      1572  TIP3      H1             -2.8494822260      -19.1961430907       53.1902493836  TIP3      1508            0.0000000000
     13100      1572  TIP3      H2             -2.1240580442      -20.4386127148       53.6140130094  TIP3      1508            0.0000000000
     13101      1573  TIP3      OH2            10.2532047209      -11.6156654595       42.6322318172  TIP3      1509            0.0000000000
     13102      1573  TIP3      H1             10.0080979170      -12.4198599299       43.1371844042  TIP3      1509            0.0000000000
     13103      1573  TIP3      H2             11.2132402387      -11.6083591839       42.7768757077  TIP3      1509            0.0000000000
     13104      1574  TIP3      OH2            -2.3889100274       -7.7572669747       51.5854439780  TIP3      1510            0.0000000000
     13105      1574  TIP3      H1             -2.0243266532       -8.6551377552       51.5997314867  TIP3      1510            0.0000000000
     13106      1574  TIP3      H2             -2.1093800846       -7.4276488028       52.4489345821  TIP3      1510            0.0000000000
     13107      1575  TIP3      OH2             3.6356542487       -9.1758695150       38.8951898381  TIP3      1511            0.0000000000
     13108      1575  TIP3      H1              3.6975190501       -9.9297424862       38.2858789784  TIP3      1511            0.0000000000
     13109      1575  TIP3      H2              3.1348880846       -9.6019473163       39.6244808392  TIP3      1511            0.0000000000
     13110      1576  TIP3      OH2             2.3523776525       -9.6637328721       41.3467033453  TIP3      1512            0.0000000000
     13111      1576  TIP3      H1              2.6925919432      -10.1805684008       42.0879007667  TIP3      1512            0.0000000000
     13112      1576  TIP3      H2              2.4820013122       -8.7412480316       41.6680109270  TIP3      1512            0.0000000000
     13113      1577  TIP3      OH2            -1.0571006765      -12.4172422651       41.8229685687  TIP3      1513            0.0000000000
     13114      1577  TIP3      H1             -1.7911707318      -12.0102832413       42.3284114486  TIP3      1513            0.0000000000
     13115      1577  TIP3      H2             -0.5704076352      -11.6404291926       41.4942484224  TIP3      1513            0.0000000000
     13116      1578  TIP3      OH2             6.8010673294      -19.7293896242       52.1585704871  TIP3      1514            0.0000000000
     13117      1578  TIP3      H1              7.5059186948      -19.6890229882       52.8129692529  TIP3      1514            0.0000000000
     13118      1578  TIP3      H2              6.4159880012      -20.6114459090       52.3684104058  TIP3      1514            0.0000000000
     13119      1579  TIP3      OH2             7.6432888805      -20.2525244838       43.2390206071  TIP3      1515            0.0000000000
     13120      1579  TIP3      H1              7.7035980735      -19.7156220953       42.4219922937  TIP3      1515            0.0000000000
     13121      1579  TIP3      H2              8.0387261228      -19.6477662521       43.8937444375  TIP3      1515            0.0000000000
     13122      1580  TIP3      OH2             5.1835936727       -8.0105382565       42.0050589075  TIP3      1516            0.0000000000
     13123      1580  TIP3      H1              4.3646345321       -7.4800919798       42.0981307967  TIP3      1516            0.0000000000
     13124      1580  TIP3      H2              5.7322932332       -7.4328514245       41.4546537837  TIP3      1516            0.0000000000
     13125      1581  TIP3      OH2             4.7454346748      -18.4403993290       44.0461855338  TIP3      1517            0.0000000000
     13126      1581  TIP3      H1              5.4968837470      -17.8212697372       44.1103967779  TIP3      1517            0.0000000000
     13127      1581  TIP3      H2              4.4450841125      -18.5592363515       44.9715078158  TIP3      1517            0.0000000000
     13128      1582  TIP3      OH2             5.3222541678      -17.3527026812       53.2205616272  TIP3      1518            0.0000000000
     13129      1582  TIP3      H1              5.3596333772      -16.8484306159       54.0572906819  TIP3      1518            0.0000000000
     13130      1582  TIP3      H2              5.9325730363      -18.0955653227       53.3329073239  TIP3      1518            0.0000000000
     13131      1583  TIP3      OH2             5.5591525007      -21.3342687017       44.9742380318  TIP3      1519            0.0000000000
     13132      1583  TIP3      H1              5.2167034557      -20.6622486474       45.5839613253  TIP3      1519            0.0000000000
     13133      1583  TIP3      H2              6.2250532906      -20.8219319133       44.4705556106  TIP3      1519            0.0000000000
     13134      1584  TIP3      OH2             2.6198992506       -6.9873062093       42.0613297453  TIP3      1520            0.0000000000
     13135      1584  TIP3      H1              2.6808412206       -6.1803568824       41.4944262592  TIP3      1520            0.0000000000
     13136      1584  TIP3      H2              2.3117184539       -6.6094213026       42.9163767778  TIP3      1520            0.0000000000
     13137      1585  TIP3      OH2             1.1802306782      -20.2092835380       41.5843363207  TIP3      1521            0.0000000000
     13138      1585  TIP3      H1              1.1685412681      -19.3495024639       42.0379568247  TIP3      1521            0.0000000000
     13139      1585  TIP3      H2              2.0701572623      -20.5145449647       41.8657379708  TIP3      1521            0.0000000000
     13140      1586  TIP3      OH2            11.4464252845      -19.5151904842       54.0631228693  TIP3      1522            0.0000000000
     13141      1586  TIP3      H1             10.5179358510      -19.2171934351       53.9313845366  TIP3      1522            0.0000000000
     13142      1586  TIP3      H2             11.7383605799      -19.5818272175       53.1364306745  TIP3      1522            0.0000000000
     13143      1587  TIP3      OH2            10.0459169726      -15.7311984966       48.0798454994  TIP3      1523            0.0000000000
     13144      1587  TIP3      H1              9.2519900815      -16.2155737593       47.8086478411  TIP3      1523            0.0000000000
     13145      1587  TIP3      H2             10.5977109288      -16.3853656658       48.5584805628  TIP3      1523            0.0000000000
     13146      1588  TIP3      OH2            -0.5464543208       -9.8085119805       40.6467730806  TIP3      1524            0.0000000000
     13147      1588  TIP3      H1              0.1472845887       -9.2280258985       40.9979257259  TIP3      1524            0.0000000000
     13148      1588  TIP3      H2             -0.0212416160      -10.2970134073       39.9822835481  TIP3      1524            0.0000000000
     13149      1589  TIP3      OH2            -2.2055442433      -17.1436934433       39.8034153695  TIP3      1525            0.0000000000
     13150      1589  TIP3      H1             -2.1462671819      -16.1951186117       40.0467836582  TIP3      1525            0.0000000000
     13151      1589  TIP3      H2             -3.1049110587      -17.2538300980       39.4853924943  TIP3      1525            0.0000000000
     13152      1590  TIP3      OH2            11.1688890893       -6.3374261920       49.7976145032  TIP3      1526            0.0000000000
     13153      1590  TIP3      H1             11.0340017714       -5.7945740915       48.9924931610  TIP3      1526            0.0000000000
     13154      1590  TIP3      H2             12.1286447418       -6.4875894112       49.7591216426  TIP3      1526            0.0000000000
     13155      1591  TIP3      OH2            -1.3761798024      -22.2551194703       48.4649249295  TIP3      1527            0.0000000000
     13156      1591  TIP3      H1             -1.6114230430      -22.3420734714       47.5182163582  TIP3      1527            0.0000000000
     13157      1591  TIP3      H2             -1.7109877292      -23.1095739673       48.8151794549  TIP3      1527            0.0000000000
     13158      1592  TIP3      OH2            -2.4306194073       -8.4201372655       44.7346782980  TIP3      1528            0.0000000000
     13159      1592  TIP3      H1             -3.2944329419       -8.0004383802       44.6473161802  TIP3      1528            0.0000000000
     13160      1592  TIP3      H2             -1.9774726664       -8.0015574168       43.9895367113  TIP3      1528            0.0000000000
     13161      1593  TIP3      OH2            -3.2498138039       -5.7740991802       55.9782941396  TIP3      1529            0.0000000000
     13162      1593  TIP3      H1             -2.6252607473       -5.9475159434       56.7084870312  TIP3      1529            0.0000000000
     13163      1593  TIP3      H2             -3.6099882158       -6.6623411864       55.8077819960  TIP3      1529            0.0000000000
     13164      1594  TIP3      OH2             1.4755858218       -6.8576675431       57.5950682320  TIP3      1530            0.0000000000
     13165      1594  TIP3      H1              2.2376581515       -7.3566429554       57.9201199283  TIP3      1530            0.0000000000
     13166      1594  TIP3      H2              1.4413782502       -7.1381154890       56.6593309997  TIP3      1530            0.0000000000
     13167      1595  TIP3      OH2             5.6246326587       -7.3341138262       39.0244770078  TIP3      1531            0.0000000000
     13168      1595  TIP3      H1              4.9154489432       -7.9965173423       39.1866134907  TIP3      1531            0.0000000000
     13169      1595  TIP3      H2              6.3318901212       -7.9364652148       38.7436598535  TIP3      1531            0.0000000000
     13170      1596  TIP3      OH2             7.9321530796       -8.4526185608       56.3685704182  TIP3      1532            0.0000000000
     13171      1596  TIP3      H1              7.6253673372       -9.3462659932       56.6392729204  TIP3      1532            0.0000000000
     13172      1596  TIP3      H2              8.7258420728       -8.3469380941       56.9279322133  TIP3      1532            0.0000000000
     13173      1597  TIP3      OH2            10.1758022955       -7.6158850661       39.1723813759  TIP3      1533            0.0000000000
     13174      1597  TIP3      H1             10.4608860469       -8.3850004077       39.6942999829  TIP3      1533            0.0000000000
     13175      1597  TIP3      H2             10.9444588766       -7.4149924407       38.6177931572  TIP3      1533            0.0000000000
     13176      1598  TIP3      OH2            -3.3444719894      -12.0190835839       56.9956539114  TIP3      1534            0.0000000000
     13177      1598  TIP3      H1             -3.1711759282      -12.9308658471       56.7018309571  TIP3      1534            0.0000000000
     13178      1598  TIP3      H2             -4.0569645402      -11.7589038229       56.3877548929  TIP3      1534            0.0000000000
     13179      1599  TIP3      OH2             1.0440569073      -11.6562342156       38.9648780132  TIP3      1535            0.0000000000
     13180      1599  TIP3      H1              1.1793159479      -12.4020567464       39.5686968822  TIP3      1535            0.0000000000
     13181      1599  TIP3      H2              1.8126961490      -11.7750892376       38.3738952255  TIP3      1535            0.0000000000
     13182      1600  TIP3      OH2             3.4060706865      -12.0045493841       56.3583226447  TIP3      1536            0.0000000000
     13183      1600  TIP3      H1              3.0895709304      -11.6576725408       55.4968889282  TIP3      1536            0.0000000000
     13184      1600  TIP3      H2              3.4470194575      -12.9840305296       56.2334047611  TIP3      1536            0.0000000000
     13185      1601  TIP3      OH2             6.4915515969      -10.5359347323       38.7731852471  TIP3      1537            0.0000000000
     13186      1601  TIP3      H1              6.2193802441      -10.4834593274       39.7035857307  TIP3      1537            0.0000000000
     13187      1601  TIP3      H2              6.3157750386      -11.4922022864       38.6045937510  TIP3      1537            0.0000000000
     13188      1602  TIP3      OH2             9.1054692654      -12.1768468794       53.8151980609  TIP3      1538            0.0000000000
     13189      1602  TIP3      H1              9.9007781549      -11.6041789936       53.7417359718  TIP3      1538            0.0000000000
     13190      1602  TIP3      H2              8.4120160572      -11.4922442885       53.7569931645  TIP3      1538            0.0000000000
     13191      1603  TIP3      OH2            -2.3645247775      -14.7787307264       56.3749819138  TIP3      1539            0.0000000000
     13192      1603  TIP3      H1             -1.9380245198      -15.6396207861       56.3012418902  TIP3      1539            0.0000000000
     13193      1603  TIP3      H2             -2.5938540876      -14.7602020147       57.3180493503  TIP3      1539            0.0000000000
     13194      1604  TIP3      OH2             2.2495792702      -13.6280589154       41.4701276399  TIP3      1540            0.0000000000
     13195      1604  TIP3      H1              1.7158311122      -14.1873194609       42.0536933209  TIP3      1540            0.0000000000
     13196      1604  TIP3      H2              2.5665143529      -14.2802934542       40.8030901564  TIP3      1540            0.0000000000
     13197      1605  TIP3      OH2             1.5034115165      -15.8676392917       53.6940964183  TIP3      1541            0.0000000000
     13198      1605  TIP3      H1              0.9207500761      -15.1332802328       53.9485300841  TIP3      1541            0.0000000000
     13199      1605  TIP3      H2              1.9356745142      -15.4811794994       52.9123197916  TIP3      1541            0.0000000000
     13200      1606  TIP3      OH2             3.3331819014      -15.4011342540       39.6204131152  TIP3      1542            0.0000000000
     13201      1606  TIP3      H1              3.1941286901      -15.4690339096       38.6534965995  TIP3      1542            0.0000000000
     13202      1606  TIP3      H2              4.3091134273      -15.3847856878       39.7044505536  TIP3      1542            0.0000000000
     13203      1607  TIP3      OH2             6.6058228415      -13.2473867949       57.0744305008  TIP3      1543            0.0000000000
     13204      1607  TIP3      H1              7.5508741410      -13.3034508565       56.8879486303  TIP3      1543            0.0000000000
     13205      1607  TIP3      H2              6.4269733364      -14.0328585856       57.6155970765  TIP3      1543            0.0000000000
     13206      1608  TIP3      OH2            12.6179102133      -13.1064383965       39.0207579576  TIP3      1544            0.0000000000
     13207      1608  TIP3      H1             12.4741565162      -13.4628132856       38.1265102769  TIP3      1544            0.0000000000
     13208      1608  TIP3      H2             12.7317601056      -12.1399801693       38.8505094809  TIP3      1544            0.0000000000
     13209      1609  TIP3      OH2             1.9513765530      -18.4768174776       54.7436209001  TIP3      1545            0.0000000000
     13210      1609  TIP3      H1              2.0916757822      -19.1460715136       54.0493298629  TIP3      1545            0.0000000000
     13211      1609  TIP3      H2              1.8722620908      -17.6585578736       54.2129443171  TIP3      1545            0.0000000000
     13212      1610  TIP3      OH2             2.3096419528      -19.8366311247       52.3217132614  TIP3      1546            0.0000000000
     13213      1610  TIP3      H1              2.8324977920      -19.5350244697       51.5452542539  TIP3      1546            0.0000000000
     13214      1610  TIP3      H2              1.4338621079      -20.0532477539       51.9330527319  TIP3      1546            0.0000000000
     13215      1611  TIP3      OH2             3.8474976635      -14.5637173989       52.5539092220  TIP3      1547            0.0000000000
     13216      1611  TIP3      H1              4.6253066105      -14.7021299339       52.0044916784  TIP3      1547            0.0000000000
     13217      1611  TIP3      H2              3.4903709740      -13.7238037419       52.2102424471  TIP3      1547            0.0000000000
     13218      1612  TIP3      OH2             8.2469982170      -16.8542802861       57.4969400021  TIP3      1548            0.0000000000
     13219      1612  TIP3      H1              8.4998538664      -17.7883947487       57.4288102240  TIP3      1548            0.0000000000
     13220      1612  TIP3      H2              9.1068418472      -16.4006815262       57.5607860778  TIP3      1548            0.0000000000
     13221      1613  TIP3      OH2             9.6293039733      -14.0230552898       55.7462966412  TIP3      1549            0.0000000000
     13222      1613  TIP3      H1              9.3538630670      -13.3284036896       55.1048286014  TIP3      1549            0.0000000000
     13223      1613  TIP3      H2             10.5782402324      -14.0566766071       55.5345786187  TIP3      1549            0.0000000000
     13224      1614  TIP3      OH2             0.4058873649      -17.2317467821       56.6775602294  TIP3      1550            0.0000000000
     13225      1614  TIP3      H1             -0.3766823875      -17.7997195401       56.5313383779  TIP3      1550            0.0000000000
     13226      1614  TIP3      H2              1.0440148421      -17.6102493423       56.0425155764  TIP3      1550            0.0000000000
     13227      1615  TIP3      OH2             2.2386316894      -22.3376316754       52.8046458197  TIP3      1551            0.0000000000
     13228      1615  TIP3      H1              2.7287688212      -21.4935826912       52.6207542036  TIP3      1551            0.0000000000
     13229      1615  TIP3      H2              2.3376793562      -22.8781515595       52.0217360201  TIP3      1551            0.0000000000
     13230      1616  TIP3      OH2             4.3976051590      -18.3069248540       56.3575579456  TIP3      1552            0.0000000000
     13231      1616  TIP3      H1              4.0597352196      -18.5702615819       57.2349541709  TIP3      1552            0.0000000000
     13232      1616  TIP3      H2              3.6201720581      -18.5000416454       55.8035900982  TIP3      1552            0.0000000000
     13233      1617  TIP3      OH2             7.0866904520      -19.2040559109       55.4622536414  TIP3      1553            0.0000000000
     13234      1617  TIP3      H1              6.1274470738      -19.1084449098       55.5804372516  TIP3      1553            0.0000000000
     13235      1617  TIP3      H2              7.3374632185      -19.8060866634       56.1880501843  TIP3      1553            0.0000000000
     13236      1618  TIP3      OH2             8.7266942472      -20.4508544257       57.3445397405  TIP3      1554            0.0000000000
     13237      1618  TIP3      H1              8.6487497410      -21.4275250347       57.3145365307  TIP3      1554            0.0000000000
     13238      1618  TIP3      H2              8.4455012850      -20.2162015974       58.2506562953  TIP3      1554            0.0000000000
     13239      1619  TIP3      OH2            -1.5197034038      -19.2937387844       56.4678238369  TIP3      1555            0.0000000000
     13240      1619  TIP3      H1             -1.2998454957      -20.0408925518       55.8798559042  TIP3      1555            0.0000000000
     13241      1619  TIP3      H2             -1.6471414199      -19.7189919998       57.3366187355  TIP3      1555            0.0000000000
     13242      1620  TIP3      OH2             3.6404224335       24.1915244278       54.9503395239  TIP3      1556            0.0000000000
     13243      1620  TIP3      H1              4.1616202909       23.4036660156       55.1305756002  TIP3      1556            0.0000000000
     13244      1620  TIP3      H2              3.1241194530       23.9527873594       54.1535000438  TIP3      1556            0.0000000000
     13245      1621  TIP3      OH2             3.7400512930      -21.5630898137       57.5086388669  TIP3      1557            0.0000000000
     13246      1621  TIP3      H1              3.5564351248      -22.0328064120       56.6740059828  TIP3      1557            0.0000000000
     13247      1621  TIP3      H2              3.1198412132      -20.8166075326       57.4622414650  TIP3      1557            0.0000000000
     13248      1622  TIP3      OH2             3.1451957257       -4.7023957936       40.7285721604  TIP3      1558            0.0000000000
     13249      1622  TIP3      H1              4.1151080845       -4.6566582640       40.7864414728  TIP3      1558            0.0000000000
     13250      1622  TIP3      H2              3.0205209730       -4.1407571521       39.9513803175  TIP3      1558            0.0000000000
     13251      1623  TIP3      OH2            -3.3174554229      -10.1629546003       40.1916166269  TIP3      1559            0.0000000000
     13252      1623  TIP3      H1             -2.3525492809      -10.0640860431       40.3541008060  TIP3      1559            0.0000000000
     13253      1623  TIP3      H2             -3.2865446834      -10.7854566823       39.4255252070  TIP3      1559            0.0000000000
     13254      1624  TIP3      OH2            -4.5048938950       -4.7859994689       45.1313501209  TIP3      1560            0.0000000000
     13255      1624  TIP3      H1             -5.2378364466       -5.2744750991       44.6954461460  TIP3      1560            0.0000000000
     13256      1624  TIP3      H2             -4.2296746352       -5.4204205873       45.8187473850  TIP3      1560            0.0000000000
     13257      1625  TIP3      OH2            -3.6765133987       -6.6238482865       47.0392461107  TIP3      1561            0.0000000000
     13258      1625  TIP3      H1             -4.0522723995       -7.4881053588       47.2573551436  TIP3      1561            0.0000000000
     13259      1625  TIP3      H2             -3.4313679454       -6.2889610531       47.9186078756  TIP3      1561            0.0000000000
     13260      1626  TIP3      OH2            13.9256263643       -5.7617903257       49.8036345231  TIP3      1562            0.0000000000
     13261      1626  TIP3      H1             14.2495029153       -5.8904394418       50.7014509780  TIP3      1562            0.0000000000
     13262      1626  TIP3      H2             14.6531157397       -5.2423105906       49.4417706305  TIP3      1562            0.0000000000
     13263      1627  TIP3      OH2            13.9279731948       -6.9610155341       52.8764006854  TIP3      1563            0.0000000000
     13264      1627  TIP3      H1             13.0829244659       -7.4506461599       52.7225530514  TIP3      1563            0.0000000000
     13265      1627  TIP3      H2             13.9852914257       -6.9214389463       53.8501989873  TIP3      1563            0.0000000000
     13266      1628  TIP3      OH2            11.8716309559      -10.5117896246       57.5671088122  TIP3      1564            0.0000000000
     13267      1628  TIP3      H1             10.9635108150      -10.5315636444       57.9256753932  TIP3      1564            0.0000000000
     13268      1628  TIP3      H2             12.2433358110       -9.7189243111       57.9959826565  TIP3      1564            0.0000000000
     13269      1629  TIP3      OH2            13.2066767991      -12.1703132774       42.9545172919  TIP3      1565            0.0000000000
     13270      1629  TIP3      H1             14.0716435693      -11.7888268491       43.1790690699  TIP3      1565            0.0000000000
     13271      1629  TIP3      H2             13.1520907117      -12.8618998944       43.6536956478  TIP3      1565            0.0000000000
     13272      1630  TIP3      OH2            13.5394871984      -14.1061977792       44.8763006732  TIP3      1566            0.0000000000
     13273      1630  TIP3      H1             12.7773233911      -14.5480032231       45.3159648205  TIP3      1566            0.0000000000
     13274      1630  TIP3      H2             14.1078619806      -13.9742860403       45.6726635758  TIP3      1566            0.0000000000
     13275      1631  TIP3      OH2            13.3625951297      -11.4036202022       49.9829793935  TIP3      1567            0.0000000000
     13276      1631  TIP3      H1             14.0654879610      -11.8658781365       49.4820525811  TIP3      1567            0.0000000000
     13277      1631  TIP3      H2             13.4782707680      -10.4898166527       49.6775038583  TIP3      1567            0.0000000000
     13278      1632  TIP3      OH2            11.8163344323       -8.4901896956       52.1159724128  TIP3      1568            0.0000000000
     13279      1632  TIP3      H1             11.0865458488       -8.2628999956       52.7173008297  TIP3      1568            0.0000000000
     13280      1632  TIP3      H2             11.3166868818       -8.9299507957       51.3877051085  TIP3      1568            0.0000000000
     13281      1633  TIP3      OH2            13.8483711235      -14.2842243112       41.2668254248  TIP3      1569            0.0000000000
     13282      1633  TIP3      H1             13.2657624276      -13.9709930481       40.5460260927  TIP3      1569            0.0000000000
     13283      1633  TIP3      H2             13.7225020134      -13.5659007414       41.9176702044  TIP3      1569            0.0000000000
     13284      1634  TIP3      OH2            12.2429032076      -17.1076434191       39.7480587464  TIP3      1570            0.0000000000
     13285      1634  TIP3      H1             12.3122298863      -16.3961296682       39.0954798818  TIP3      1570            0.0000000000
     13286      1634  TIP3      H2             12.0193861124      -17.8760077706       39.2014949324  TIP3      1570            0.0000000000
     13287      1635  TIP3      OH2            11.3244172913      -15.6253936443       45.4502191723  TIP3      1571            0.0000000000
     13288      1635  TIP3      H1             11.2531809909      -16.5873951912       45.4463406712  TIP3      1571            0.0000000000
     13289      1635  TIP3      H2             11.1421971671      -15.4117842421       46.3939870017  TIP3      1571            0.0000000000
     13290      1636  TIP3      OH2            -3.6201546408      -13.5366737415       49.5307444673  TIP3      1572            0.0000000000
     13291      1636  TIP3      H1             -3.4622961216      -13.6274361175       48.5641990902  TIP3      1572            0.0000000000
     13292      1636  TIP3      H2             -2.7239486165      -13.7429104427       49.8669114625  TIP3      1572            0.0000000000
     13293      1637  TIP3      OH2            12.2505476340      -13.6595757582       55.1474339638  TIP3      1573            0.0000000000
     13294      1637  TIP3      H1             12.8535068062      -14.4218852352       55.2720357607  TIP3      1573            0.0000000000
     13295      1637  TIP3      H2             12.8635835097      -12.8922784468       55.1418774311  TIP3      1573            0.0000000000
     13296      1638  TIP3      OH2            13.7432992012      -15.8159572022       55.8014539655  TIP3      1574            0.0000000000
     13297      1638  TIP3      H1             12.8504561035      -16.1981434653       55.6601331742  TIP3      1574            0.0000000000
     13298      1638  TIP3      H2             14.3056600052      -16.6129483025       55.7320217788  TIP3      1574            0.0000000000
     13299      1639  TIP3      OH2            11.5271118613      -19.6650394402       38.8668179918  TIP3      1575            0.0000000000
     13300      1639  TIP3      H1             12.0477897403      -19.8729695290       39.6573918016  TIP3      1575            0.0000000000
     13301      1639  TIP3      H2             10.5886465204      -19.8669651991       39.0840164797  TIP3      1575            0.0000000000
     13302      1640  TIP3      OH2            11.0020378758      -18.0363354792       43.8416285321  TIP3      1576            0.0000000000
     13303      1640  TIP3      H1             11.3234992051      -18.9352854817       44.0585736255  TIP3      1576            0.0000000000
     13304      1640  TIP3      H2             11.8317762088      -17.6180125058       43.5721888731  TIP3      1576            0.0000000000
     13305      1641  TIP3      OH2            11.6777777400      -17.5903658829       49.3726308289  TIP3      1577            0.0000000000
     13306      1641  TIP3      H1             12.6010600124      -17.2511664779       49.2990263118  TIP3      1577            0.0000000000
     13307      1641  TIP3      H2             11.5051379653      -17.3505561049       50.2911433238  TIP3      1577            0.0000000000
     13308      1642  TIP3      OH2            11.7517385683      -16.7751421029       52.1495839222  TIP3      1578            0.0000000000
     13309      1642  TIP3      H1             10.8602551868      -16.4760846744       52.4186643580  TIP3      1578            0.0000000000
     13310      1642  TIP3      H2             12.1857857333      -15.9369292466       51.8708462399  TIP3      1578            0.0000000000
     13311      1643  TIP3      OH2            -3.9648951514      -18.2492676177       55.7346578190  TIP3      1579            0.0000000000
     13312      1643  TIP3      H1             -3.0350169088      -18.5340527420       55.8658566154  TIP3      1579            0.0000000000
     13313      1643  TIP3      H2             -4.4513879014      -19.0894007735       55.8755435197  TIP3      1579            0.0000000000
     13314      1644  TIP3      OH2            14.1041328533      -22.6677961785       57.5824454270  TIP3      1580            0.0000000000
     13315      1644  TIP3      H1             14.2484189645      -23.3990085607       56.9341641820  TIP3      1580            0.0000000000
     13316      1644  TIP3      H2             14.0591120235      -21.9240376862       56.9523408821  TIP3      1580            0.0000000000
     13317      1645  TIP3      OH2            11.7471784535      -20.8116559951       43.8924370575  TIP3      1581            0.0000000000
     13318      1645  TIP3      H1             11.9480747739      -21.1544775653       44.7998657764  TIP3      1581            0.0000000000
     13319      1645  TIP3      H2             11.0449685363      -21.4267474477       43.6081978583  TIP3      1581            0.0000000000
     13320      1646  TIP3      OH2            -2.8078585987      -19.9255939088       48.5319989897  TIP3      1582            0.0000000000
     13321      1646  TIP3      H1             -2.3537531180      -20.7531970905       48.7902116875  TIP3      1582            0.0000000000
     13322      1646  TIP3      H2             -2.2143763562      -19.2395592006       48.8678050234  TIP3      1582            0.0000000000
     13323      1647  TIP3      OH2            -4.5291131112      -16.9346046117       49.5481210532  TIP3      1583            0.0000000000
     13324      1647  TIP3      H1             -3.9580279476      -17.2139501482       48.8036216240  TIP3      1583            0.0000000000
     13325      1647  TIP3      H2             -4.0297965470      -16.1497005094       49.8190259758  TIP3      1583            0.0000000000
     13326      1648  TIP3      OH2            13.5316333083      -20.6593184116       55.7868639338  TIP3      1584            0.0000000000
     13327      1648  TIP3      H1             12.5991694410      -20.3870913934       55.7658366619  TIP3      1584            0.0000000000
     13328      1648  TIP3      H2             13.5204635624      -21.2539137449       55.0210482266  TIP3      1584            0.0000000000
     13329      1649  TIP3      OH2            13.6265393887      -20.7086448652       40.5762872622  TIP3      1585            0.0000000000
     13330      1649  TIP3      H1             14.1247163159      -21.3250900169       40.0047267250  TIP3      1585            0.0000000000
     13331      1649  TIP3      H2             14.2472864140      -19.9549969139       40.6304549885  TIP3      1585            0.0000000000
     13332      1650  TIP3      OH2            -4.1896635751      -20.5477211580       43.7374920253  TIP3      1586            0.0000000000
     13333      1650  TIP3      H1             -5.1217719976      -20.5316951506       43.4690040593  TIP3      1586            0.0000000000
     13334      1650  TIP3      H2             -3.7404634258      -20.1835908931       42.9486485030  TIP3      1586            0.0000000000
     13335      1651  TIP3      OH2            10.5727333376       -5.7482228464       45.5899382617  TIP3      1587            0.0000000000
     13336      1651  TIP3      H1             11.2597560033       -6.0314528264       44.9567860643  TIP3      1587            0.0000000000
     13337      1651  TIP3      H2             11.0798658475       -5.2291961206       46.2260512822  TIP3      1587            0.0000000000
     13338      1652  TIP3      OH2            -4.1222267398      -21.8755247746       51.9969820991  TIP3      1588            0.0000000000
     13339      1652  TIP3      H1             -4.7806039943      -22.1877826177       52.6291483910  TIP3      1588            0.0000000000
     13340      1652  TIP3      H2             -4.6114159181      -21.2848219179       51.3912395170  TIP3      1588            0.0000000000
     13341      1653  TIP3      OH2            -1.9458279173       -8.8626889098       56.0682789336  TIP3      1589            0.0000000000
     13342      1653  TIP3      H1             -2.7847068591       -8.6218029827       55.6376084840  TIP3      1589            0.0000000000
     13343      1653  TIP3      H2             -2.2108712087       -8.9426640529       56.9869846789  TIP3      1589            0.0000000000
     13344      1654  TIP3      OH2             0.9041756522       -7.8534898597       52.3113337090  TIP3      1590            0.0000000000
     13345      1654  TIP3      H1              0.6660538606       -6.9363037104       52.1080207229  TIP3      1590            0.0000000000
     13346      1654  TIP3      H2              1.8620272585       -7.7711275771       52.1031918221  TIP3      1590            0.0000000000
     13347      1655  TIP3      OH2             5.2350443345       -6.3677584448       55.2896688579  TIP3      1591            0.0000000000
     13348      1655  TIP3      H1              5.3844316281       -6.7863941180       56.1639183197  TIP3      1591            0.0000000000
     13349      1655  TIP3      H2              6.1448368166       -6.1310994974       55.0136812210  TIP3      1591            0.0000000000
     13350      1656  TIP3      OH2             7.5250677688       -5.1057502741       54.5535706932  TIP3      1592            0.0000000000
     13351      1656  TIP3      H1              8.2067693788       -5.7523204352       54.3457609655  TIP3      1592            0.0000000000
     13352      1656  TIP3      H2              7.8758376061       -4.6910317691       55.3706654640  TIP3      1592            0.0000000000
     13353      1657  TIP3      OH2            12.4839262384      -22.5417679686       53.7123305639  TIP3      1593            0.0000000000
     13354      1657  TIP3      H1             11.6967630097      -22.1652924848       53.2923414138  TIP3      1593            0.0000000000
     13355      1657  TIP3      H2             12.6667847519      -23.3488111745       53.2115126222  TIP3      1593            0.0000000000
     13356      1658  TIP3      OH2            -1.6605922111       -4.6029505980       52.3227584313  TIP3      1594            0.0000000000
     13357      1658  TIP3      H1             -2.3941410348       -4.0811717991       51.9583037785  TIP3      1594            0.0000000000
     13358      1658  TIP3      H2             -1.9210548335       -4.7735469860       53.2386797995  TIP3      1594            0.0000000000
     13359      1659  TIP3      OH2             0.7856016170       -4.9894624914       51.4129993767  TIP3      1595            0.0000000000
     13360      1659  TIP3      H1             -0.1022032016       -4.8234601897       51.8052285575  TIP3      1595            0.0000000000
     13361      1659  TIP3      H2              0.7583867802       -4.3929815747       50.6482472636  TIP3      1595            0.0000000000
     13362      1660  TIP3      OH2             5.5609279678       -5.1033016413       50.5403986371  TIP3      1596            0.0000000000
     13363      1660  TIP3      H1              5.0497895503       -4.5438012818       49.9422321024  TIP3      1596            0.0000000000
     13364      1660  TIP3      H2              5.6485702612       -4.5277568317       51.3328795978  TIP3      1596            0.0000000000
     13365      1661  TIP3      OH2             7.8541880400       -6.3190080012       51.6538978425  TIP3      1597            0.0000000000
     13366      1661  TIP3      H1              6.9784849998       -6.1275554697       51.2698516474  TIP3      1597            0.0000000000
     13367      1661  TIP3      H2              8.2539693353       -5.4514239700       51.5390980752  TIP3      1597            0.0000000000
     13368      1662  TIP3      OH2            10.2946680656       -4.7314633549       51.8178750464  TIP3      1598            0.0000000000
     13369      1662  TIP3      H1             10.2603853203       -3.7702066307       51.5928600565  TIP3      1598            0.0000000000
     13370      1662  TIP3      H2             10.4061223034       -5.1259865094       50.9198394077  TIP3      1598            0.0000000000
     13371      1663  TIP3      OH2            -2.1554783253       -5.9456305269       49.2986825011  TIP3      1599            0.0000000000
     13372      1663  TIP3      H1             -2.2538761073       -6.4309902160       50.1444327707  TIP3      1599            0.0000000000
     13373      1663  TIP3      H2             -1.3471570143       -6.3483259795       48.9162827404  TIP3      1599            0.0000000000
     13374      1664  TIP3      OH2            -0.0730696853       -7.2485189812       47.9677969236  TIP3      1600            0.0000000000
     13375      1664  TIP3      H1             -0.2223833193       -8.1817631604       48.2124203701  TIP3      1600            0.0000000000
     13376      1664  TIP3      H2              0.7886401970       -7.0802794552       48.4038668540  TIP3      1600            0.0000000000
     13377      1665  TIP3      OH2             2.5084490924       -6.7548286083       48.8300392868  TIP3      1601            0.0000000000
     13378      1665  TIP3      H1              2.6623789127       -7.6845202752       48.5845431568  TIP3      1601            0.0000000000
     13379      1665  TIP3      H2              2.5701756271       -6.8082739778       49.7958496360  TIP3      1601            0.0000000000
     13380      1666  TIP3      OH2             5.8719507252      -20.9944900436       47.9929630022  TIP3      1602            0.0000000000
     13381      1666  TIP3      H1              5.2807227114      -21.7161853476       48.2923592972  TIP3      1602            0.0000000000
     13382      1666  TIP3      H2              6.5006951643      -21.5272731421       47.4864671038  TIP3      1602            0.0000000000
     13383      1667  TIP3      OH2            11.2296475762      -22.4821234326       48.2317984447  TIP3      1603            0.0000000000
     13384      1667  TIP3      H1             11.7752082871      -22.3751097544       47.4229447123  TIP3      1603            0.0000000000
     13385      1667  TIP3      H2             10.3462312716      -22.7356100088       47.9072162265  TIP3      1603            0.0000000000
     13386      1668  TIP3      OH2            12.7773997864      -21.7685513496       46.1843405809  TIP3      1604            0.0000000000
     13387      1668  TIP3      H1             13.4266267679      -22.4137360350       45.8785238590  TIP3      1604            0.0000000000
     13388      1668  TIP3      H2             13.3200013119      -20.9669289800       46.3785584735  TIP3      1604            0.0000000000
     13389      1669  TIP3      OH2            -1.7262151122      -22.5494479622       45.8361512142  TIP3      1605            0.0000000000
     13390      1669  TIP3      H1             -2.4574966933      -22.6828017405       45.2211321469  TIP3      1605            0.0000000000
     13391      1669  TIP3      H2             -1.2158871999      -23.3585662926       45.7441132899  TIP3      1605            0.0000000000
     13392      1670  TIP3      OH2            -2.8095196320      -22.3028231902       42.1332040931  TIP3      1606            0.0000000000
     13393      1670  TIP3      H1             -2.5497136702      -21.8757553911       41.3024797368  TIP3      1606            0.0000000000
     13394      1670  TIP3      H2             -3.7217613800      -22.0002020433       42.2282883749  TIP3      1606            0.0000000000
     13395      1671  TIP3      OH2             2.7774236063      -22.3829349134       45.5385835876  TIP3      1607            0.0000000000
     13396      1671  TIP3      H1              3.7151998432      -22.1461136833       45.5271030156  TIP3      1607            0.0000000000
     13397      1671  TIP3      H2              2.7283265504      -22.9351721885       46.3369479189  TIP3      1607            0.0000000000
     13398      1672  TIP3      OH2             8.3764026991      -22.5116661674       47.1640252950  TIP3      1608            0.0000000000
     13399      1672  TIP3      H1              8.5221465830      -22.4297063490       46.2215214375  TIP3      1608            0.0000000000
     13400      1672  TIP3      H2              8.2305515249      -23.4560685071       47.2974146037  TIP3      1608            0.0000000000
     13401      1673  TIP3      OH2             9.8513522237      -22.3889621915       42.9198415433  TIP3      1609            0.0000000000
     13402      1673  TIP3      H1              9.0646628768      -21.8070253277       42.8453143082  TIP3      1609            0.0000000000
     13403      1673  TIP3      H2              9.5464269059      -23.1249998575       43.4654110466  TIP3      1609            0.0000000000
     13404      1674  TIP3      OH2            -3.0189797119       -6.7918867084       42.6019074927  TIP3      1610            0.0000000000
     13405      1674  TIP3      H1             -3.6608579845       -6.8187767895       41.8685589764  TIP3      1610            0.0000000000
     13406      1674  TIP3      H2             -3.0082037554       -5.8327379042       42.7332639876  TIP3      1610            0.0000000000
     13407      1675  TIP3      OH2            -1.1426926922      -20.8370698175       40.0639994449  TIP3      1611            0.0000000000
     13408      1675  TIP3      H1             -0.5683248386      -21.3847306556       39.5048737723  TIP3      1611            0.0000000000
     13409      1675  TIP3      H2             -0.4841684167      -20.4726470584       40.6865966958  TIP3      1611            0.0000000000
     13410      1676  TIP3      OH2             3.8168750221      -20.5443592515       42.4853198905  TIP3      1612            0.0000000000
     13411      1676  TIP3      H1              4.2109961069      -21.0892529522       43.1913605242  TIP3      1612            0.0000000000
     13412      1676  TIP3      H2              3.9879117212      -19.6674067608       42.8794307571  TIP3      1612            0.0000000000
     13413      1677  TIP3      OH2             5.8800374550       -5.4361009799       40.8867316103  TIP3      1613            0.0000000000
     13414      1677  TIP3      H1              6.8157045196       -5.2816898185       40.6728623790  TIP3      1613            0.0000000000
     13415      1677  TIP3      H2              5.6563173401       -5.9981617108       40.1158667665  TIP3      1613            0.0000000000
     13416      1678  TIP3      OH2            12.5275761684       -5.9770140734       43.6394801296  TIP3      1614            0.0000000000
     13417      1678  TIP3      H1             12.3677055310       -6.7689248971       43.0717569508  TIP3      1614            0.0000000000
     13418      1678  TIP3      H2             12.4715716046       -5.2450536171       42.9875087467  TIP3      1614            0.0000000000
     13419      1679  TIP3      OH2            -1.7283697932      -21.7916507777       55.1861576097  TIP3      1615            0.0000000000
     13420      1679  TIP3      H1             -2.1982993680      -22.6047320267       55.5031057142  TIP3      1615            0.0000000000
     13421      1679  TIP3      H2             -0.8938048913      -21.9342122982       55.6799667095  TIP3      1615            0.0000000000
     13422      1680  TIP3      OH2             0.2729929610      -22.5641208545       56.8776952544  TIP3      1616            0.0000000000
     13423      1680  TIP3      H1              1.1805953634      -22.8744158242       56.7530687837  TIP3      1616            0.0000000000
     13424      1680  TIP3      H2             -0.1476817947      -23.3601652551       57.2443773551  TIP3      1616            0.0000000000
     13425      1681  TIP3      OH2            -1.2250281393       -5.7862271574       39.5147185215  TIP3      1617            0.0000000000
     13426      1681  TIP3      H1             -1.4879276711       -5.5303988970       40.4098625079  TIP3      1617            0.0000000000
     13427      1681  TIP3      H2             -0.4452258291       -6.3548785084       39.6648859294  TIP3      1617            0.0000000000
     13428      1682  TIP3      OH2             8.6999735727       23.5959063918       57.0236420139  TIP3      1618            0.0000000000
     13429      1682  TIP3      H1              8.5803645679       22.9560632524       57.7390967692  TIP3      1618            0.0000000000
     13430      1682  TIP3      H2              9.5939261463       23.4529227207       56.6892557862  TIP3      1618            0.0000000000
     13431      1683  TIP3      OH2            11.8645755855       -7.1576236981       55.5936376486  TIP3      1619            0.0000000000
     13432      1683  TIP3      H1             11.0065012621       -7.3605143693       55.1588172646  TIP3      1619            0.0000000000
     13433      1683  TIP3      H2             11.6659280814       -6.2660725197       55.9458057092  TIP3      1619            0.0000000000
     13434      1684  TIP3      OH2            17.5493477142      -14.5199094904       50.6768951894  TIP3      1620            0.0000000000
     13435      1684  TIP3      H1             17.5637046643      -15.1405743832       51.4306499182  TIP3      1620            0.0000000000
     13436      1684  TIP3      H2             18.1790970761      -13.8472560177       50.9699622875  TIP3      1620            0.0000000000
     13437      1685  TIP3      OH2            18.3799399097       -9.9510595739       49.1920166525  TIP3      1621            0.0000000000
     13438      1685  TIP3      H1             18.0678461667      -10.8369694709       48.9110419477  TIP3      1621            0.0000000000
     13439      1685  TIP3      H2             19.3366030417      -10.1503459189       49.2280884261  TIP3      1621            0.0000000000
     13440      1686  TIP3      OH2            15.0401086250      -16.4194947692       44.6688274082  TIP3      1622            0.0000000000
     13441      1686  TIP3      H1             14.5727831845      -15.5578919970       44.6823279551  TIP3      1622            0.0000000000
     13442      1686  TIP3      H2             14.4341656796      -16.9634536219       44.1565363677  TIP3      1622            0.0000000000
     13443      1687  TIP3      OH2            15.8522754352      -14.1480436898       46.8277060789  TIP3      1623            0.0000000000
     13444      1687  TIP3      H1             16.0070371619      -14.9790252388       47.3097048114  TIP3      1623            0.0000000000
     13445      1687  TIP3      H2             16.5224399625      -14.1266634867       46.1487120909  TIP3      1623            0.0000000000
     13446      1688  TIP3      OH2            19.5024307978      -19.0751721271       47.1588892905  TIP3      1624            0.0000000000
     13447      1688  TIP3      H1             19.9138111743      -18.3294534350       46.6680662517  TIP3      1624            0.0000000000
     13448      1688  TIP3      H2             19.3246542640      -19.7211527561       46.4449240208  TIP3      1624            0.0000000000
     13449      1689  TIP3      OH2            16.4143170950      -16.7246769525       47.9161490047  TIP3      1625            0.0000000000
     13450      1689  TIP3      H1             17.0859974663      -17.2669224965       48.3558420410  TIP3      1625            0.0000000000
     13451      1689  TIP3      H2             16.5084033406      -16.9997054863       46.9894041724  TIP3      1625            0.0000000000
     13452      1690  TIP3      OH2            21.5518174348      -15.1629950764       47.2410028651  TIP3      1626            0.0000000000
     13453      1690  TIP3      H1             22.2368318813      -15.7419194440       47.6309436060  TIP3      1626            0.0000000000
     13454      1690  TIP3      H2             21.0007482454      -15.8237526458       46.7796778246  TIP3      1626            0.0000000000
     13455      1691  TIP3      OH2            18.6055659633      -20.2145249826       51.1909421380  TIP3      1627            0.0000000000
     13456      1691  TIP3      H1             18.3625515970      -19.5897987927       50.4610528862  TIP3      1627            0.0000000000
     13457      1691  TIP3      H2             17.9399770591      -19.9709896017       51.8884966082  TIP3      1627            0.0000000000
     13458      1692  TIP3      OH2            21.2450634606      -12.5387539347       51.4766660274  TIP3      1628            0.0000000000
     13459      1692  TIP3      H1             20.4628023287      -11.9715111727       51.6866701211  TIP3      1628            0.0000000000
     13460      1692  TIP3      H2             21.8544203321      -11.8866020390       51.1274949782  TIP3      1628            0.0000000000
     13461      1693  TIP3      OH2            18.2453162228      -18.3400362327       49.2899719917  TIP3      1629            0.0000000000
     13462      1693  TIP3      H1             18.8938074691      -17.6522214462       49.5534653851  TIP3      1629            0.0000000000
     13463      1693  TIP3      H2             18.7090050699      -18.7579606076       48.5121754695  TIP3      1629            0.0000000000
     13464      1694  TIP3      OH2            19.6417066125      -10.5759450730       52.2605173798  TIP3      1630            0.0000000000
     13465      1694  TIP3      H1             19.5744132999       -9.6679817428       51.9174472089  TIP3      1630            0.0000000000
     13466      1694  TIP3      H2             18.7650510307      -10.6628151788       52.7167285552  TIP3      1630            0.0000000000
     13467      1695  TIP3      OH2            15.7235313205      -11.0008404502       43.0321999166  TIP3      1631            0.0000000000
     13468      1695  TIP3      H1             15.4826744176      -10.6110361209       42.1723740395  TIP3      1631            0.0000000000
     13469      1695  TIP3      H2             15.8128094088      -10.2016342945       43.5885748322  TIP3      1631            0.0000000000
     13470      1696  TIP3      OH2            22.8565094516      -22.7147725865       48.8655099963  TIP3      1632            0.0000000000
     13471      1696  TIP3      H1             22.6854970116      -23.6599581912       48.6942761612  TIP3      1632            0.0000000000
     13472      1696  TIP3      H2             21.9635971448      -22.3529395114       48.8764006107  TIP3      1632            0.0000000000
     13473      1697  TIP3      OH2            19.9461531426      -13.2206706972       46.0269720502  TIP3      1633            0.0000000000
     13474      1697  TIP3      H1             19.6355149785      -13.6353747233       45.1929536332  TIP3      1633            0.0000000000
     13475      1697  TIP3      H2             20.5503915514      -13.9075026586       46.3877242866  TIP3      1633            0.0000000000
     13476      1698  TIP3      OH2            21.2176681545       -9.9230673514       48.7652987208  TIP3      1634            0.0000000000
     13477      1698  TIP3      H1             21.2416768095      -10.3422801155       47.8917434247  TIP3      1634            0.0000000000
     13478      1698  TIP3      H2             22.1276742776      -10.0980976216       49.0671572196  TIP3      1634            0.0000000000
     13479      1699  TIP3      OH2            20.3140409504      -14.4633465657       49.7384459734  TIP3      1635            0.0000000000
     13480      1699  TIP3      H1             20.8702440911      -14.4393277380       48.9341164044  TIP3      1635            0.0000000000
     13481      1699  TIP3      H2             20.7480883251      -13.7895630737       50.3021353529  TIP3      1635            0.0000000000
     13482      1700  TIP3      OH2            21.2206162814      -10.1652724598       54.4071441893  TIP3      1636            0.0000000000
     13483      1700  TIP3      H1             20.8927782925       -9.3571376718       54.8603685010  TIP3      1636            0.0000000000
     13484      1700  TIP3      H2             20.6046612868      -10.2750529312       53.6533855360  TIP3      1636            0.0000000000
     13485      1701  TIP3      OH2            18.2302086349      -13.8953599577       53.4940643714  TIP3      1637            0.0000000000
     13486      1701  TIP3      H1             18.2812571444      -13.2295269311       54.2036919997  TIP3      1637            0.0000000000
     13487      1701  TIP3      H2             17.2727184543      -13.8464193686       53.3391527392  TIP3      1637            0.0000000000
     13488      1702  TIP3      OH2            19.5179565539       -8.0508366348       55.1017626305  TIP3      1638            0.0000000000
     13489      1702  TIP3      H1             19.4021319729       -8.1359151793       54.1353518407  TIP3      1638            0.0000000000
     13490      1702  TIP3      H2             18.5937768412       -8.1662383501       55.3987756440  TIP3      1638            0.0000000000
     13491      1703  TIP3      OH2            18.9199135754      -14.2542745866       43.6460987929  TIP3      1639            0.0000000000
     13492      1703  TIP3      H1             18.6630331425      -13.4570462724       43.1385512875  TIP3      1639            0.0000000000
     13493      1703  TIP3      H2             18.2499234212      -14.8949093929       43.3922083353  TIP3      1639            0.0000000000
     13494      1704  TIP3      OH2            15.0292906318      -11.7712263501       52.5780412957  TIP3      1640            0.0000000000
     13495      1704  TIP3      H1             14.6160285212      -11.8539630832       51.6909551894  TIP3      1640            0.0000000000
     13496      1704  TIP3      H2             15.1355755447      -12.7229276083       52.7580120377  TIP3      1640            0.0000000000
     13497      1705  TIP3      OH2            14.7949205025       -8.9738110773       49.2720295764  TIP3      1641            0.0000000000
     13498      1705  TIP3      H1             15.7312412505       -9.2324413311       49.2493868021  TIP3      1641            0.0000000000
     13499      1705  TIP3      H2             14.7952624127       -8.2082935787       49.8421557235  TIP3      1641            0.0000000000
     13500      1706  TIP3      OH2            18.0765263298       -6.1922939856       45.4816172343  TIP3      1642            0.0000000000
     13501      1706  TIP3      H1             18.2085080138       -6.5942128620       46.3676916894  TIP3      1642            0.0000000000
     13502      1706  TIP3      H2             17.2195981971       -6.5918141953       45.2469024460  TIP3      1642            0.0000000000
     13503      1707  TIP3      OH2            17.3187371370      -10.4328163115       53.4737550915  TIP3      1643            0.0000000000
     13504      1707  TIP3      H1             17.5279867201      -10.8017316454       54.3577786880  TIP3      1643            0.0000000000
     13505      1707  TIP3      H2             16.4546291525      -10.8413122437       53.2576187742  TIP3      1643            0.0000000000
     13506      1708  TIP3      OH2            19.9820709067      -21.4543817820       49.2974332179  TIP3      1644            0.0000000000
     13507      1708  TIP3      H1             19.1321899721      -21.8781307158       49.0181119665  TIP3      1644            0.0000000000
     13508      1708  TIP3      H2             19.6716986691      -20.9381646479       50.0646281705  TIP3      1644            0.0000000000
     13509      1709  TIP3      OH2            20.1017558568      -17.0337876838       50.7240075308  TIP3      1645            0.0000000000
     13510      1709  TIP3      H1             19.3474684228      -17.0264065417       51.3418636719  TIP3      1645            0.0000000000
     13511      1709  TIP3      H2             20.0363527977      -16.1444188744       50.3153929562  TIP3      1645            0.0000000000
     13512      1710  TIP3      OH2            20.0466051029      -16.8750453527       45.4942807577  TIP3      1646            0.0000000000
     13513      1710  TIP3      H1             19.1090134450      -17.1558505424       45.4436806064  TIP3      1646            0.0000000000
     13514      1710  TIP3      H2             20.4073770449      -17.2186514387       44.6568362079  TIP3      1646            0.0000000000
     13515      1711  TIP3      OH2            17.7450547013      -16.7427581914       52.3659295480  TIP3      1647            0.0000000000
     13516      1711  TIP3      H1             17.8577633067      -16.3590055401       53.2469043394  TIP3      1647            0.0000000000
     13517      1711  TIP3      H2             17.3220843873      -17.5910944726       52.5666940594  TIP3      1647            0.0000000000
     13518      1712  TIP3      OH2            20.9811925531      -19.5006231214       39.2722103111  TIP3      1648            0.0000000000
     13519      1712  TIP3      H1             20.4864561681      -19.8372244727       40.0419068383  TIP3      1648            0.0000000000
     13520      1712  TIP3      H2             20.3588499548      -18.9381769924       38.7852793917  TIP3      1648            0.0000000000
     13521      1713  TIP3      OH2            14.4130503651      -19.6768059721       46.3629429622  TIP3      1649            0.0000000000
     13522      1713  TIP3      H1             15.1174393967      -19.6394910585       47.0404560558  TIP3      1649            0.0000000000
     13523      1713  TIP3      H2             14.8439143623      -20.0501370329       45.5710834772  TIP3      1649            0.0000000000
     13524      1714  TIP3      OH2            15.5852746865      -18.9383031148       41.7017080291  TIP3      1650            0.0000000000
     13525      1714  TIP3      H1             16.1587699283      -18.3819298297       41.1451791893  TIP3      1650            0.0000000000
     13526      1714  TIP3      H2             14.9535227041      -18.2616374091       42.0208736198  TIP3      1650            0.0000000000
     13527      1715  TIP3      OH2            22.0917859901      -19.0812603451       46.7037277937  TIP3      1651            0.0000000000
     13528      1715  TIP3      H1             21.3022994946      -19.4652328673       47.1236911437  TIP3      1651            0.0000000000
     13529      1715  TIP3      H2             22.7810457997      -19.2879642803       47.3501470620  TIP3      1651            0.0000000000
     13530      1716  TIP3      OH2            17.4012060036      -17.7538982807       45.4155760860  TIP3      1652            0.0000000000
     13531      1716  TIP3      H1             16.5155005453      -17.6234252265       45.0166654107  TIP3      1652            0.0000000000
     13532      1716  TIP3      H2             17.6766513236      -18.6175029801       45.0478273513  TIP3      1652            0.0000000000
     13533      1717  TIP3      OH2            21.1376432602      -17.7691544862       43.0647891286  TIP3      1653            0.0000000000
     13534      1717  TIP3      H1             22.0427520065      -17.5118130736       43.2041243675  TIP3      1653            0.0000000000
     13535      1717  TIP3      H2             20.7957550056      -17.1042361996       42.4269784873  TIP3      1653            0.0000000000
     13536      1718  TIP3      OH2            19.8139362146      -16.6269614930       40.6348487920  TIP3      1654            0.0000000000
     13537      1718  TIP3      H1             19.2126669314      -16.9515348426       39.9412372258  TIP3      1654            0.0000000000
     13538      1718  TIP3      H2             20.5867151874      -16.3740956399       40.1041378129  TIP3      1654            0.0000000000
     13539      1719  TIP3      OH2            17.8754122962      -11.9680680214       55.6848911675  TIP3      1655            0.0000000000
     13540      1719  TIP3      H1             18.6238511194      -11.7521718625       56.2733833791  TIP3      1655            0.0000000000
     13541      1719  TIP3      H2             17.1303464984      -11.9576401808       56.3222190730  TIP3      1655            0.0000000000
     13542      1720  TIP3      OH2            18.9209954958      -20.4535160831       44.9048541512  TIP3      1656            0.0000000000
     13543      1720  TIP3      H1             18.5388920582      -21.3521433657       44.9294982870  TIP3      1656            0.0000000000
     13544      1720  TIP3      H2             19.6779036937      -20.5717435562       44.3214327695  TIP3      1656            0.0000000000
     13545      1721  TIP3      OH2            22.4529803495      -18.3953112526       51.0421396420  TIP3      1657            0.0000000000
     13546      1721  TIP3      H1             21.7445004188      -17.7504924967       50.8270589079  TIP3      1657            0.0000000000
     13547      1721  TIP3      H2             23.0707653274      -17.8533630691       51.5182164377  TIP3      1657            0.0000000000
     13548      1722  TIP3      OH2            22.9851571531      -12.1060380851       42.3708541767  TIP3      1658            0.0000000000
     13549      1722  TIP3      H1             22.1327055886      -12.5649088474       42.2372927275  TIP3      1658            0.0000000000
     13550      1722  TIP3      H2             22.9715023613      -11.9311733979       43.3277583424  TIP3      1658            0.0000000000
     13551      1723  TIP3      OH2            18.3641360341      -12.6029833068       48.3916406841  TIP3      1659            0.0000000000
     13552      1723  TIP3      H1             18.9235199897      -12.7627291513       47.6118232256  TIP3      1659            0.0000000000
     13553      1723  TIP3      H2             18.2457278445      -13.4865086782       48.7839055231  TIP3      1659            0.0000000000
     13554      1724  TIP3      OH2            15.2435808541      -14.2445334190       53.6467666006  TIP3      1660            0.0000000000
     13555      1724  TIP3      H1             15.3563452571      -14.7168622205       54.4913270637  TIP3      1660            0.0000000000
     13556      1724  TIP3      H2             14.6166532210      -14.8050651112       53.1428197701  TIP3      1660            0.0000000000
     13557      1725  TIP3      OH2            22.3516682143      -14.6407126769       55.7436076478  TIP3      1661            0.0000000000
     13558      1725  TIP3      H1             21.8570065196      -15.0325480463       55.0068120863  TIP3      1661            0.0000000000
     13559      1725  TIP3      H2             23.1632171228      -15.1597898772       55.7787888067  TIP3      1661            0.0000000000
     13560      1726  TIP3      OH2            20.5969084581       -9.1483997133       45.8210058322  TIP3      1662            0.0000000000
     13561      1726  TIP3      H1             21.0890569238       -8.3756991271       45.5051587445  TIP3      1662            0.0000000000
     13562      1726  TIP3      H2             19.7185294665       -8.9629326468       45.4623245202  TIP3      1662            0.0000000000
     13563      1727  TIP3      OH2            16.4028154200      -14.3597249283       40.3152697114  TIP3      1663            0.0000000000
     13564      1727  TIP3      H1             16.9580525693      -13.6799371329       40.7353186055  TIP3      1663            0.0000000000
     13565      1727  TIP3      H2             15.4958500962      -14.0656749356       40.5383897723  TIP3      1663            0.0000000000
     13566      1728  TIP3      OH2            21.9808549720      -11.5126827444       45.2242598028  TIP3      1664            0.0000000000
     13567      1728  TIP3      H1             21.6623287157      -10.6038470890       45.3819152073  TIP3      1664            0.0000000000
     13568      1728  TIP3      H2             21.2924506828      -12.0296132435       45.6910691120  TIP3      1664            0.0000000000
     13569      1729  TIP3      OH2            22.4794991768       -7.3567276923       51.6149042512  TIP3      1665            0.0000000000
     13570      1729  TIP3      H1             22.9073233172       -6.5070971141       51.4582093542  TIP3      1665            0.0000000000
     13571      1729  TIP3      H2             23.0353635875       -7.7295173535       52.3121524739  TIP3      1665            0.0000000000
     13572      1730  TIP3      OH2            20.7209680596       -6.4916992768       44.7645333535  TIP3      1666            0.0000000000
     13573      1730  TIP3      H1             19.7451859755       -6.4566614484       44.9236412803  TIP3      1666            0.0000000000
     13574      1730  TIP3      H2             20.9751373828       -5.6747893158       45.2087698233  TIP3      1666            0.0000000000
     13575      1731  TIP3      OH2            16.8828907887      -19.5862902066       53.1792075155  TIP3      1667            0.0000000000
     13576      1731  TIP3      H1             15.9942629730      -19.1985024124       53.1786565895  TIP3      1667            0.0000000000
     13577      1731  TIP3      H2             16.7256750906      -20.4417408282       53.6188109146  TIP3      1667            0.0000000000
     13578      1732  TIP3      OH2            16.5318389270       -7.6946581104       51.5805967426  TIP3      1668            0.0000000000
     13579      1732  TIP3      H1             16.8442396732       -8.6108750566       51.5758050077  TIP3      1668            0.0000000000
     13580      1732  TIP3      H2             16.7692078644       -7.4491896485       52.4795683104  TIP3      1668            0.0000000000
     13581      1733  TIP3      OH2            22.3324548728       -9.1464090711       38.7727182796  TIP3      1669            0.0000000000
     13582      1733  TIP3      H1             22.5824043766       -9.9425590000       38.2874938269  TIP3      1669            0.0000000000
     13583      1733  TIP3      H2             22.0978057725       -9.5579526268       39.6327537792  TIP3      1669            0.0000000000
     13584      1734  TIP3      OH2            21.2340274264       -9.6725587106       41.3373349345  TIP3      1670            0.0000000000
     13585      1734  TIP3      H1             21.5592645080      -10.2212234371       42.0614158630  TIP3      1670            0.0000000000
     13586      1734  TIP3      H2             21.3319381373       -8.7518551097       41.6686838431  TIP3      1670            0.0000000000
     13587      1735  TIP3      OH2            17.8102125958      -12.4175010530       41.8231266762  TIP3      1671            0.0000000000
     13588      1735  TIP3      H1             17.0876880373      -12.0082744654       42.3388292208  TIP3      1671            0.0000000000
     13589      1735  TIP3      H2             18.2900502645      -11.6411229906       41.4842352629  TIP3      1671            0.0000000000
     13590      1736  TIP3      OH2            21.3814125301       -6.9963184999       42.0170528118  TIP3      1672            0.0000000000
     13591      1736  TIP3      H1             21.4576014360       -6.1892043020       41.4467025555  TIP3      1672            0.0000000000
     13592      1736  TIP3      H2             21.1473049037       -6.6299333991       42.8913204473  TIP3      1672            0.0000000000
     13593      1737  TIP3      OH2            19.9067115293      -20.1585426745       41.6004645039  TIP3      1673            0.0000000000
     13594      1737  TIP3      H1             19.9653957769      -19.3028287774       42.0429080667  TIP3      1673            0.0000000000
     13595      1737  TIP3      H2             20.8226201760      -20.4723289134       41.8022465981  TIP3      1673            0.0000000000
     13596      1738  TIP3      OH2            18.3138205974       -9.8115951138       40.6469908866  TIP3      1674            0.0000000000
     13597      1738  TIP3      H1             19.0205055088       -9.2386181238       40.9903139868  TIP3      1674            0.0000000000
     13598      1738  TIP3      H2             18.8508789327      -10.2935905619       39.9873202813  TIP3      1674            0.0000000000
     13599      1739  TIP3      OH2            16.6611996131      -17.1400706798       39.8014875075  TIP3      1675            0.0000000000
     13600      1739  TIP3      H1             16.7160702270      -16.1901463723       40.0447314709  TIP3      1675            0.0000000000
     13601      1739  TIP3      H2             15.7609871308      -17.2572816992       39.4848575627  TIP3      1675            0.0000000000
     13602      1740  TIP3      OH2            17.4366811750      -22.2639670132       48.4785855363  TIP3      1676            0.0000000000
     13603      1740  TIP3      H1             17.2539556133      -22.3352388651       47.5198488256  TIP3      1676            0.0000000000
     13604      1740  TIP3      H2             17.1158901220      -23.1313168042       48.8095238805  TIP3      1676            0.0000000000
     13605      1741  TIP3      OH2            16.4383569910       -8.4244754351       44.7228471485  TIP3      1677            0.0000000000
     13606      1741  TIP3      H1             15.5713239119       -8.0075699514       44.6344609136  TIP3      1677            0.0000000000
     13607      1741  TIP3      H2             16.8852555998       -7.9992839135       43.9791204355  TIP3      1677            0.0000000000
     13608      1742  TIP3      OH2            15.5712274076       -5.8029514949       55.9533882491  TIP3      1678            0.0000000000
     13609      1742  TIP3      H1             16.2276676020       -5.9298561391       56.6691931940  TIP3      1678            0.0000000000
     13610      1742  TIP3      H2             15.2664158025       -6.7198321973       55.8363324990  TIP3      1678            0.0000000000
     13611      1743  TIP3      OH2            20.3459523280       -6.8597929939       57.5744461801  TIP3      1679            0.0000000000
     13612      1743  TIP3      H1             21.1252886124       -7.3359299129       57.9122051852  TIP3      1679            0.0000000000
     13613      1743  TIP3      H2             20.2860314267       -7.1780954402       56.6501517802  TIP3      1679            0.0000000000
     13614      1744  TIP3      OH2            15.5040148088      -12.0151321473       56.9929489212  TIP3      1680            0.0000000000
     13615      1744  TIP3      H1             15.6779037719      -12.9257366407       56.6950072696  TIP3      1680            0.0000000000
     13616      1744  TIP3      H2             14.8061109792      -11.7401727051       56.3727741763  TIP3      1680            0.0000000000
     13617      1745  TIP3      OH2            19.8359820414      -11.7161990271       38.9848890390  TIP3      1681            0.0000000000
     13618      1745  TIP3      H1             20.0246019578      -12.4193600867       39.6179176150  TIP3      1681            0.0000000000
     13619      1745  TIP3      H2             20.6284646559      -11.7867791976       38.4158402407  TIP3      1681            0.0000000000
     13620      1746  TIP3      OH2            22.2175290324      -11.9834766354       56.3714601691  TIP3      1682            0.0000000000
     13621      1746  TIP3      H1             21.8725686640      -11.6394401230       55.5196290062  TIP3      1682            0.0000000000
     13622      1746  TIP3      H2             22.2981428088      -12.9558835887       56.2008325904  TIP3      1682            0.0000000000
     13623      1747  TIP3      OH2            16.4982287295      -14.7728746258       56.3760177530  TIP3      1683            0.0000000000
     13624      1747  TIP3      H1             16.9083899387      -15.6383965881       56.2828440929  TIP3      1683            0.0000000000
     13625      1747  TIP3      H2             16.2672295258      -14.7663774550       57.3175033223  TIP3      1683            0.0000000000
     13626      1748  TIP3      OH2            21.0186053018      -13.6697762201       41.4548206575  TIP3      1684            0.0000000000
     13627      1748  TIP3      H1             20.4975835328      -14.2304111648       42.0423509891  TIP3      1684            0.0000000000
     13628      1748  TIP3      H2             21.3772742802      -14.2920080665       40.7872601515  TIP3      1684            0.0000000000
     13629      1749  TIP3      OH2            20.3232254380      -15.8497924060       53.7111749454  TIP3      1685            0.0000000000
     13630      1749  TIP3      H1             19.7152757653      -15.1329861039       53.9453453461  TIP3      1685            0.0000000000
     13631      1749  TIP3      H2             20.7469793146      -15.4724291945       52.9178074991  TIP3      1685            0.0000000000
     13632      1750  TIP3      OH2            22.1821054620      -15.3762788387       39.6285279834  TIP3      1686            0.0000000000
     13633      1750  TIP3      H1             21.9299623724      -15.5534338605       38.7007895835  TIP3      1686            0.0000000000
     13634      1750  TIP3      H2             23.1449179942      -15.3980999427       39.5825547347  TIP3      1686            0.0000000000
     13635      1751  TIP3      OH2            20.8304405270      -18.5122085921       54.7224927709  TIP3      1687            0.0000000000
     13636      1751  TIP3      H1             20.9422909988      -19.1806548877       54.0226729379  TIP3      1687            0.0000000000
     13637      1751  TIP3      H2             20.7230480456      -17.6875435356       54.1990035484  TIP3      1687            0.0000000000
     13638      1752  TIP3      OH2            21.1117335616      -19.9862261690       52.3785541978  TIP3      1688            0.0000000000
     13639      1752  TIP3      H1             21.6272869171      -19.5423670227       51.6637125309  TIP3      1688            0.0000000000
     13640      1752  TIP3      H2             20.2411104235      -20.0531846361       51.9390825906  TIP3      1688            0.0000000000
     13641      1753  TIP3      OH2            22.4492494893      -14.7655097327       52.2435621556  TIP3      1689            0.0000000000
     13642      1753  TIP3      H1             23.3014888195      -14.7809229393       51.7934763974  TIP3      1689            0.0000000000
     13643      1753  TIP3      H2             22.2139290494      -13.8151910852       52.1339736481  TIP3      1689            0.0000000000
     13644      1754  TIP3      OH2            19.2580001997      -17.2296768902       56.6755967896  TIP3      1690            0.0000000000
     13645      1754  TIP3      H1             18.4721476811      -17.7861149656       56.5089567964  TIP3      1690            0.0000000000
     13646      1754  TIP3      H2             19.9001936327      -17.6285848064       56.0574596537  TIP3      1690            0.0000000000
     13647      1755  TIP3      OH2            21.0159741444      -22.4301724438       52.8610021493  TIP3      1691            0.0000000000
     13648      1755  TIP3      H1             21.4482388566      -21.5507532686       52.6712926062  TIP3      1691            0.0000000000
     13649      1755  TIP3      H2             21.1279246899      -22.9352327285       52.0535734253  TIP3      1691            0.0000000000
     13650      1756  TIP3      OH2            22.6571728954      -17.8952988065       56.8041529392  TIP3      1692            0.0000000000
     13651      1756  TIP3      H1             22.7789151439      -18.6396273666       57.4134418218  TIP3      1692            0.0000000000
     13652      1756  TIP3      H2             22.2807971553      -18.3350157170       56.0146257807  TIP3      1692            0.0000000000
     13653      1757  TIP3      OH2            17.3043672580      -19.2877636599       56.4636298724  TIP3      1693            0.0000000000
     13654      1757  TIP3      H1             17.5495463208      -20.0342037397       55.8858706839  TIP3      1693            0.0000000000
     13655      1757  TIP3      H2             17.2518079119      -19.7072633383       57.3456984401  TIP3      1693            0.0000000000
     13656      1758  TIP3      OH2            22.5109841490       24.2596860155       54.9469903046  TIP3      1694            0.0000000000
     13657      1758  TIP3      H1             23.0172144007       23.4607090141       55.1148686620  TIP3      1694            0.0000000000
     13658      1758  TIP3      H2             21.9948257542       23.9653364565       54.1650666198  TIP3      1694            0.0000000000
     13659      1759  TIP3      OH2            22.5445947660      -21.6239481419       57.5491170515  TIP3      1695            0.0000000000
     13660      1759  TIP3      H1             22.4419562880      -21.9955547161       56.6525109594  TIP3      1695            0.0000000000
     13661      1759  TIP3      H2             21.9509193284      -20.8469314271       57.5279389387  TIP3      1695            0.0000000000
     13662      1760  TIP3      OH2            22.0244245498       -4.6981405240       40.7412970249  TIP3      1696            0.0000000000
     13663      1760  TIP3      H1             22.9801646597       -4.6548650918       40.7390704284  TIP3      1696            0.0000000000
     13664      1760  TIP3      H2             21.8735539503       -4.1535994364       39.9508546841  TIP3      1696            0.0000000000
     13665      1761  TIP3      OH2            15.5448615350      -10.1609822371       40.1949468361  TIP3      1697            0.0000000000
     13666      1761  TIP3      H1             16.5138090454      -10.0561959716       40.3531101439  TIP3      1697            0.0000000000
     13667      1761  TIP3      H2             15.5746260064      -10.7837709787       39.4279464608  TIP3      1697            0.0000000000
     13668      1762  TIP3      OH2            14.3478393118       -4.7814569458       45.1300770227  TIP3      1698            0.0000000000
     13669      1762  TIP3      H1             13.6177808779       -5.2714761983       44.6918955985  TIP3      1698            0.0000000000
     13670      1762  TIP3      H2             14.6232920218       -5.4163346303       45.8172505832  TIP3      1698            0.0000000000
     13671      1763  TIP3      OH2            15.1641842749       -6.6282498302       47.0186466502  TIP3      1699            0.0000000000
     13672      1763  TIP3      H1             14.8212187273       -7.5080947899       47.2286393582  TIP3      1699            0.0000000000
     13673      1763  TIP3      H2             15.4312733969       -6.3129253853       47.8957503448  TIP3      1699            0.0000000000
     13674      1764  TIP3      OH2            15.6394577984      -13.1067259437       49.5489652563  TIP3      1700            0.0000000000
     13675      1764  TIP3      H1             15.3291492673      -13.5561346208       48.7299461576  TIP3      1700            0.0000000000
     13676      1764  TIP3      H2             16.2927835058      -13.7559210704       49.8851153646  TIP3      1700            0.0000000000
     13677      1765  TIP3      OH2            14.8960218681      -18.2462413880       55.7319257838  TIP3      1701            0.0000000000
     13678      1765  TIP3      H1             15.8228929916      -18.5360289817       55.8659579289  TIP3      1701            0.0000000000
     13679      1765  TIP3      H2             14.4065960464      -19.0855611714       55.8767967176  TIP3      1701            0.0000000000
     13680      1766  TIP3      OH2            16.0538942714      -19.9260236950       48.5200474762  TIP3      1702            0.0000000000
     13681      1766  TIP3      H1             16.4919410270      -20.7572849055       48.7957148574  TIP3      1702            0.0000000000
     13682      1766  TIP3      H2             16.6603832889      -19.2584841118       48.8638246886  TIP3      1702            0.0000000000
     13683      1767  TIP3      OH2            14.4387068402      -17.0622177354       49.6488846809  TIP3      1703            0.0000000000
     13684      1767  TIP3      H1             14.8916733537      -17.2021116499       48.7930879754  TIP3      1703            0.0000000000
     13685      1767  TIP3      H2             14.6924779771      -16.1342141790       49.7569076816  TIP3      1703            0.0000000000
     13686      1768  TIP3      OH2            14.6695296018      -20.5956341457       43.7016491672  TIP3      1704            0.0000000000
     13687      1768  TIP3      H1             13.7301467949      -20.4920696267       43.4892997054  TIP3      1704            0.0000000000
     13688      1768  TIP3      H2             15.1188476512      -20.1626207439       42.9510419900  TIP3      1704            0.0000000000
     13689      1769  TIP3      OH2            14.7346463957      -21.8735232432       51.9902087480  TIP3      1705            0.0000000000
     13690      1769  TIP3      H1             14.0719897427      -22.1661468779       52.6239139111  TIP3      1705            0.0000000000
     13691      1769  TIP3      H2             14.2496650925      -21.2758976776       51.3871009478  TIP3      1705            0.0000000000
     13692      1770  TIP3      OH2            16.9194226281       -8.8637229350       56.0834291595  TIP3      1706            0.0000000000
     13693      1770  TIP3      H1             16.0735732551       -8.6347674802       55.6527125809  TIP3      1706            0.0000000000
     13694      1770  TIP3      H2             16.6548316461       -8.9516420387       56.9996976099  TIP3      1706            0.0000000000
     13695      1771  TIP3      OH2            19.7769533959       -7.7799804633       52.3817358469  TIP3      1707            0.0000000000
     13696      1771  TIP3      H1             19.4696110700       -6.9102874978       52.0919407879  TIP3      1707            0.0000000000
     13697      1771  TIP3      H2             20.7131824119       -7.7284165251       52.1071398145  TIP3      1707            0.0000000000
     13698      1772  TIP3      OH2            17.1806802325       -4.6390685577       52.3168116423  TIP3      1708            0.0000000000
     13699      1772  TIP3      H1             16.5101793196       -4.0423546208       51.9641333736  TIP3      1708            0.0000000000
     13700      1772  TIP3      H2             16.9550688670       -4.7490850623       53.2540386962  TIP3      1708            0.0000000000
     13701      1773  TIP3      OH2            19.6692427534       -5.0548068160       51.3702876194  TIP3      1709            0.0000000000
     13702      1773  TIP3      H1             18.8046852453       -4.8891033165       51.8175100727  TIP3      1709            0.0000000000
     13703      1773  TIP3      H2             19.6011879091       -4.3983249228       50.6530384280  TIP3      1709            0.0000000000
     13704      1774  TIP3      OH2            16.7124183661       -5.9756970061       49.3059968583  TIP3      1710            0.0000000000
     13705      1774  TIP3      H1             16.6611660839       -6.4829647542       50.1443628655  TIP3      1710            0.0000000000
     13706      1774  TIP3      H2             17.5180791680       -6.3414419946       48.8929383807  TIP3      1710            0.0000000000
     13707      1775  TIP3      OH2            18.7637005732       -7.2344733337       47.9344092748  TIP3      1711            0.0000000000
     13708      1775  TIP3      H1             18.6263312460       -8.1727243762       48.1937869439  TIP3      1711            0.0000000000
     13709      1775  TIP3      H2             19.6246015028       -7.0578347781       48.3623939230  TIP3      1711            0.0000000000
     13710      1776  TIP3      OH2            21.3894130149       -6.7657933801       48.8191790333  TIP3      1712            0.0000000000
     13711      1776  TIP3      H1             21.4988678046       -7.6974932412       48.5615976232  TIP3      1712            0.0000000000
     13712      1776  TIP3      H2             21.3537326115       -6.8207737525       49.7863616772  TIP3      1712            0.0000000000
     13713      1777  TIP3      OH2            17.1389960044      -22.5464971986       45.8387705561  TIP3      1713            0.0000000000
     13714      1777  TIP3      H1             16.3985798052      -22.6858293348       45.2334896653  TIP3      1713            0.0000000000
     13715      1777  TIP3      H2             17.6349831026      -23.3642383946       45.7425310588  TIP3      1713            0.0000000000
     13716      1778  TIP3      OH2            16.0107130977      -22.3447452601       42.1084509893  TIP3      1714            0.0000000000
     13717      1778  TIP3      H1             16.3287813898      -21.8654456101       41.3242853790  TIP3      1714            0.0000000000
     13718      1778  TIP3      H2             15.1505251350      -21.9435589598       42.2738256705  TIP3      1714            0.0000000000
     13719      1779  TIP3      OH2            21.6698557568      -22.3505550989       45.4831830061  TIP3      1715            0.0000000000
     13720      1779  TIP3      H1             22.5883376149      -22.0962264410       45.5943330600  TIP3      1715            0.0000000000
     13721      1779  TIP3      H2             21.5425479312      -22.9010961290       46.2853626448  TIP3      1715            0.0000000000
     13722      1780  TIP3      OH2            15.8340692768       -6.7936701428       42.6037185528  TIP3      1716            0.0000000000
     13723      1780  TIP3      H1             15.1931894226       -6.8164750944       41.8699187419  TIP3      1716            0.0000000000
     13724      1780  TIP3      H2             15.8538803934       -5.8304706921       42.7283936264  TIP3      1716            0.0000000000
     13725      1781  TIP3      OH2            17.7034171457      -20.8620112326       40.0657864973  TIP3      1717            0.0000000000
     13726      1781  TIP3      H1             18.2979947934      -21.3608148495       39.4826797416  TIP3      1717            0.0000000000
     13727      1781  TIP3      H2             18.3710957334      -20.4618148844       40.6642627542  TIP3      1717            0.0000000000
     13728      1782  TIP3      OH2            22.4022931004      -20.4760804175       42.1110197901  TIP3      1718            0.0000000000
     13729      1782  TIP3      H1             22.7586114185      -21.1704869833       42.6752646400  TIP3      1718            0.0000000000
     13730      1782  TIP3      H2             22.7191713693      -19.6872968797       42.5599291224  TIP3      1718            0.0000000000
     13731      1783  TIP3      OH2            17.1338422640      -21.7943318348       55.1793259946  TIP3      1719            0.0000000000
     13732      1783  TIP3      H1             16.6551113640      -22.5937883545       55.5099941192  TIP3      1719            0.0000000000
     13733      1783  TIP3      H2             17.9609693683      -21.9387711128       55.6825856866  TIP3      1719            0.0000000000
     13734      1784  TIP3      OH2            19.0828421598      -22.5976363011       56.8021342957  TIP3      1720            0.0000000000
     13735      1784  TIP3      H1             20.0030635257      -22.8734462391       56.7176459837  TIP3      1720            0.0000000000
     13736      1784  TIP3      H2             18.7143866215      -23.3864062039       57.2328877909  TIP3      1720            0.0000000000
     13737      1785  TIP3      OH2            17.6478039935       -5.7928115343       39.5110841976  TIP3      1721            0.0000000000
     13738      1785  TIP3      H1             17.3695656265       -5.5410219264       40.4019651242  TIP3      1721            0.0000000000
     13739      1785  TIP3      H2             18.4340937515       -6.3513486307       39.6720621127  TIP3      1721            0.0000000000
     13740      1786  TIP3      OH2           -11.4238210562        5.5262101037       45.6212030452  TIP3      1722            0.0000000000
     13741      1786  TIP3      H1            -11.4896219696        6.5036380684       45.6596636889  TIP3      1722            0.0000000000
     13742      1786  TIP3      H2            -12.1866758801        5.2950042465       45.0647089362  TIP3      1722            0.0000000000
     13743      1787  TIP3      OH2           -12.5849849607        4.7459157396       49.1484963218  TIP3      1723            0.0000000000
     13744      1787  TIP3      H1            -12.6001074744        4.1260380834       49.8931320239  TIP3      1723            0.0000000000
     13745      1787  TIP3      H2            -12.9884322341        4.2206476061       48.4349838806  TIP3      1723            0.0000000000
     13746      1788  TIP3      OH2           -20.2189771566        4.4242926812       50.6697706174  TIP3      1724            0.0000000000
     13747      1788  TIP3      H1            -20.1521113373        3.7477251890       51.3756774899  TIP3      1724            0.0000000000
     13748      1788  TIP3      H2            -19.4936490289        5.0182544730       50.9302866567  TIP3      1724            0.0000000000
     13749      1789  TIP3      OH2            -8.9462018426        7.7174907861       47.4678014386  TIP3      1725            0.0000000000
     13750      1789  TIP3      H1             -9.3296489385        6.9919262593       47.9685002224  TIP3      1725            0.0000000000
     13751      1789  TIP3      H2             -8.8852874740        8.4154168782       48.1452938182  TIP3      1725            0.0000000000
     13752      1790  TIP3      OH2           -19.3827628912        8.9081593883       49.1960346746  TIP3      1726            0.0000000000
     13753      1790  TIP3      H1            -19.6523410820        8.0160972281       48.8951525717  TIP3      1726            0.0000000000
     13754      1790  TIP3      H2            -18.4233134070        8.7468366112       49.2368095300  TIP3      1726            0.0000000000
     13755      1791  TIP3      OH2           -22.6137868023        2.4676462177       44.6113667262  TIP3      1727            0.0000000000
     13756      1791  TIP3      H1            -23.0324982715        3.3373621564       44.6937750282  TIP3      1727            0.0000000000
     13757      1791  TIP3      H2            -23.2951840619        1.8936878621       44.2864096935  TIP3      1727            0.0000000000
     13758      1792  TIP3      OH2           -21.9132910582        4.6534001041       46.9137240528  TIP3      1728            0.0000000000
     13759      1792  TIP3      H1            -21.6566706587        3.7979999636       47.3087435739  TIP3      1728            0.0000000000
     13760      1792  TIP3      H2            -21.2476752877        4.7993005972       46.2304029435  TIP3      1728            0.0000000000
     13761      1793  TIP3      OH2           -11.8131830980       12.8850336435       47.6976179219  TIP3      1729            0.0000000000
     13762      1793  TIP3      H1            -11.1499667194       12.2165630112       47.3980406310  TIP3      1729            0.0000000000
     13763      1793  TIP3      H2            -12.0446815282       12.5056516469       48.5472998772  TIP3      1729            0.0000000000
     13764      1794  TIP3      OH2           -14.2308676215        7.1532664799       49.6865295788  TIP3      1730            0.0000000000
     13765      1794  TIP3      H1            -13.9062373776        6.5488512354       49.0031604833  TIP3      1730            0.0000000000
     13766      1794  TIP3      H2            -13.3953839475        7.3220141826       50.1610135699  TIP3      1730            0.0000000000
     13767      1795  TIP3      OH2            -5.6545553163       -1.1657214942       50.3396894566  TIP3      1731            0.0000000000
     13768      1795  TIP3      H1             -5.4591185424       -0.5958511788       51.1154442998  TIP3      1731            0.0000000000
     13769      1795  TIP3      H2             -5.0506650317       -0.7681813949       49.6962655070  TIP3      1731            0.0000000000
     13770      1796  TIP3      OH2           -11.0569305459        1.6330625735       49.9827062494  TIP3      1732            0.0000000000
     13771      1796  TIP3      H1            -10.8713544584        0.6775826666       49.9972141879  TIP3      1732            0.0000000000
     13772      1796  TIP3      H2            -11.1606927002        1.7606164540       49.0204551350  TIP3      1732            0.0000000000
     13773      1797  TIP3      OH2           -17.9810998245       -0.2678879241       47.1619159431  TIP3      1733            0.0000000000
     13774      1797  TIP3      H1            -17.8346540590        0.5478176788       46.6436978004  TIP3      1733            0.0000000000
     13775      1797  TIP3      H2            -18.3351900094       -0.8548017870       46.4601536956  TIP3      1733            0.0000000000
     13776      1798  TIP3      OH2           -10.2185463448       -0.2153439556       45.5453570998  TIP3      1734            0.0000000000
     13777      1798  TIP3      H1             -9.5824966794       -0.5229754082       46.2290896670  TIP3      1734            0.0000000000
     13778      1798  TIP3      H2             -9.6499154977        0.3931348991       45.0512871758  TIP3      1734            0.0000000000
     13779      1799  TIP3      OH2           -21.2036085295        2.1697344981       47.8489306662  TIP3      1735            0.0000000000
     13780      1799  TIP3      H1            -20.6191811628        1.5869401721       48.3545148745  TIP3      1735            0.0000000000
     13781      1799  TIP3      H2            -21.1473475755        1.7611833964       46.9694927109  TIP3      1735            0.0000000000
     13782      1800  TIP3      OH2           -16.1933434580        3.6891448836       47.2627860955  TIP3      1736            0.0000000000
     13783      1800  TIP3      H1            -15.4919720474        3.1104480360       47.6124724813  TIP3      1736            0.0000000000
     13784      1800  TIP3      H2            -16.6731602366        3.0536006838       46.6971015891  TIP3      1736            0.0000000000
     13785      1801  TIP3      OH2            -5.2067597295        0.2269650500       52.6436470873  TIP3      1737            0.0000000000
     13786      1801  TIP3      H1             -5.7794745423        1.0138949886       52.5044330986  TIP3      1737            0.0000000000
     13787      1801  TIP3      H2             -5.1795634725        0.1887461090       53.6079437910  TIP3      1737            0.0000000000
     13788      1802  TIP3      OH2           -18.9718921757       -1.3752042877       51.1906256737  TIP3      1738            0.0000000000
     13789      1802  TIP3      H1            -19.2886165090       -0.8032762978       50.4578721797  TIP3      1738            0.0000000000
     13790      1802  TIP3      H2            -19.6646894859       -1.1663277053       51.8668123235  TIP3      1738            0.0000000000
     13791      1803  TIP3      OH2           -11.7736295902        8.0906736348       44.7545480114  TIP3      1739            0.0000000000
     13792      1803  TIP3      H1            -11.9930139555        7.8444936636       43.8461870209  TIP3      1739            0.0000000000
     13793      1803  TIP3      H2            -12.0624190216        9.0298725865       44.8072356533  TIP3      1739            0.0000000000
     13794      1804  TIP3      OH2           -16.5401764837        6.2592305187       51.4184978017  TIP3      1740            0.0000000000
     13795      1804  TIP3      H1            -17.2338225567        6.8976636669       51.6917269166  TIP3      1740            0.0000000000
     13796      1804  TIP3      H2            -15.8317703710        6.8600374624       51.1294934528  TIP3      1740            0.0000000000
     13797      1805  TIP3      OH2            -8.3684475219       -0.8415807972       47.5284775785  TIP3      1741            0.0000000000
     13798      1805  TIP3      H1             -8.6152363325       -1.6067866967       48.0547253326  TIP3      1741            0.0000000000
     13799      1805  TIP3      H2             -7.7050520199       -0.4185983097       48.1005356265  TIP3      1741            0.0000000000
     13800      1806  TIP3      OH2           -19.4465835529        0.4572919762       49.2936303634  TIP3      1742            0.0000000000
     13801      1806  TIP3      H1            -18.8362572289        1.1703200855       49.5792665317  TIP3      1742            0.0000000000
     13802      1806  TIP3      H2            -18.9566298936        0.0995135892       48.5044227579  TIP3      1742            0.0000000000
     13803      1807  TIP3      OH2           -18.0419828807        8.2931995449       52.2396247031  TIP3      1743            0.0000000000
     13804      1807  TIP3      H1            -18.1103533769        9.2116331425       51.9237193552  TIP3      1743            0.0000000000
     13805      1807  TIP3      H2            -18.9239183115        8.1826352480       52.6693542770  TIP3      1743            0.0000000000
     13806      1808  TIP3      OH2           -21.5586128091        8.1532726327       42.9767641863  TIP3      1744            0.0000000000
     13807      1808  TIP3      H1            -22.2710643224        8.0724727361       42.3111637512  TIP3      1744            0.0000000000
     13808      1808  TIP3      H2            -21.9262879506        8.7768852210       43.6147463704  TIP3      1744            0.0000000000
     13809      1809  TIP3      OH2            -8.3976451150        9.5646818474       49.8171804701  TIP3      1745            0.0000000000
     13810      1809  TIP3      H1             -9.3663223413        9.6861613612       49.9361147610  TIP3      1745            0.0000000000
     13811      1809  TIP3      H2             -8.1283340397       10.4741120240       49.5906949673  TIP3      1745            0.0000000000
     13812      1810  TIP3      OH2            -8.0828312544       -2.1659276935       51.1927248590  TIP3      1746            0.0000000000
     13813      1810  TIP3      H1             -8.7884629277       -1.5187601394       51.0755426877  TIP3      1746            0.0000000000
     13814      1810  TIP3      H2             -7.3446075735       -1.7595787510       50.6957337236  TIP3      1746            0.0000000000
     13815      1811  TIP3      OH2           -15.1354188140       -4.0340714146       48.6579014866  TIP3      1747            0.0000000000
     13816      1811  TIP3      H1            -15.2972797211       -4.9930686617       48.5772439924  TIP3      1747            0.0000000000
     13817      1811  TIP3      H2            -16.0065548817       -3.7213028371       48.9877809016  TIP3      1747            0.0000000000
     13818      1812  TIP3      OH2           -10.1246058173       11.3500631190       46.3893206491  TIP3      1748            0.0000000000
     13819      1812  TIP3      H1             -9.7188235057       10.6163177151       45.8814980455  TIP3      1748            0.0000000000
     13820      1812  TIP3      H2             -9.6330582131       12.1177206569       46.0243762784  TIP3      1748            0.0000000000
     13821      1813  TIP3      OH2            -8.8983367231        9.2667179524       44.9290654962  TIP3      1749            0.0000000000
     13822      1813  TIP3      H1             -9.2133746985        8.5826664462       44.3169697465  TIP3      1749            0.0000000000
     13823      1813  TIP3      H2             -8.8752931943        8.7671874187       45.7646151508  TIP3      1749            0.0000000000
     13824      1814  TIP3      OH2            -7.3251483843        7.8857743968       53.4164474497  TIP3      1750            0.0000000000
     13825      1814  TIP3      H1             -7.1590096336        7.2002265690       52.7301719393  TIP3      1750            0.0000000000
     13826      1814  TIP3      H2             -7.0867595639        8.7041226193       52.9413815834  TIP3      1750            0.0000000000
     13827      1815  TIP3      OH2           -12.8080846446        4.7313232605       43.1517556334  TIP3      1751            0.0000000000
     13828      1815  TIP3      H1            -13.4804089932        5.3460930822       42.7968889065  TIP3      1751            0.0000000000
     13829      1815  TIP3      H2            -12.0758141295        4.8510148411       42.5230387362  TIP3      1751            0.0000000000
     13830      1816  TIP3      OH2           -12.6976530750        3.3604261348       40.1696992559  TIP3      1752            0.0000000000
     13831      1816  TIP3      H1            -11.9951425520        3.3606341218       40.8455263140  TIP3      1752            0.0000000000
     13832      1816  TIP3      H2            -12.4071860265        2.6043762668       39.6478852347  TIP3      1752            0.0000000000
     13833      1817  TIP3      OH2            -5.4082626046        4.1944016085       51.4310436295  TIP3      1753            0.0000000000
     13834      1817  TIP3      H1             -6.0481870623        4.9315539267       51.4689488806  TIP3      1753            0.0000000000
     13835      1817  TIP3      H2             -4.8861127212        4.4457936772       50.6458233919  TIP3      1753            0.0000000000
     13836      1818  TIP3      OH2            -9.3147049257        4.9344357578       44.0979824034  TIP3      1754            0.0000000000
     13837      1818  TIP3      H1            -10.0614790883        5.1943252377       44.6902342451  TIP3      1754            0.0000000000
     13838      1818  TIP3      H2             -8.8348941651        4.2884411695       44.6458530378  TIP3      1754            0.0000000000
     13839      1819  TIP3      OH2            -9.4091958540        3.1291485144       53.2433707027  TIP3      1755            0.0000000000
     13840      1819  TIP3      H1             -9.4218908214        3.9607748180       53.7433128900  TIP3      1755            0.0000000000
     13841      1819  TIP3      H2            -10.0304291940        3.3984798076       52.5374763988  TIP3      1755            0.0000000000
     13842      1820  TIP3      OH2           -17.7131450750        5.6178789817       46.0372902235  TIP3      1756            0.0000000000
     13843      1820  TIP3      H1            -18.0604669904        5.2242140095       45.2006951848  TIP3      1756            0.0000000000
     13844      1820  TIP3      H2            -17.1010707349        4.9209422796       46.3553811068  TIP3      1756            0.0000000000
     13845      1821  TIP3      OH2           -16.4514811850        8.9804755711       48.7031843118  TIP3      1757            0.0000000000
     13846      1821  TIP3      H1            -16.4142628137        8.4991099256       47.8618002369  TIP3      1757            0.0000000000
     13847      1821  TIP3      H2            -15.6452888928        8.6484492974       49.1465568080  TIP3      1757            0.0000000000
     13848      1822  TIP3      OH2           -17.4253999315        4.3578414954       49.7024588905  TIP3      1758            0.0000000000
     13849      1822  TIP3      H1            -16.8986635803        4.4409676364       48.8806418755  TIP3      1758            0.0000000000
     13850      1822  TIP3      H2            -17.0184249739        5.0377144097       50.2843400113  TIP3      1758            0.0000000000
     13851      1823  TIP3      OH2           -10.9679103998        9.9596690857       50.4041748696  TIP3      1759            0.0000000000
     13852      1823  TIP3      H1            -11.2566942444       10.5944952570       51.0689091221  TIP3      1759            0.0000000000
     13853      1823  TIP3      H2            -11.2188258332        9.1016486053       50.8141704583  TIP3      1759            0.0000000000
     13854      1824  TIP3      OH2           -16.4485739785        8.8059627849       54.3885091101  TIP3      1760            0.0000000000
     13855      1824  TIP3      H1            -16.9077460023        9.5152677387       54.8867220205  TIP3      1760            0.0000000000
     13856      1824  TIP3      H2            -17.0999871730        8.5928296323       53.6788160209  TIP3      1760            0.0000000000
     13857      1825  TIP3      OH2           -10.4484774797        4.1929002517       41.7451933958  TIP3      1761            0.0000000000
     13858      1825  TIP3      H1             -9.9065225030        4.3575369909       42.5558614602  TIP3      1761            0.0000000000
     13859      1825  TIP3      H2             -9.9717817786        4.6783670849       41.0299252737  TIP3      1761            0.0000000000
     13860      1826  TIP3      OH2           -19.5031423124        4.9738216528       53.5272473902  TIP3      1762            0.0000000000
     13861      1826  TIP3      H1            -19.4349485833        5.6632365283       54.2140394654  TIP3      1762            0.0000000000
     13862      1826  TIP3      H2            -20.4633554962        5.0325176037       53.3574622344  TIP3      1762            0.0000000000
     13863      1827  TIP3      OH2           -12.7519619243       10.8920850448       45.2303338706  TIP3      1763            0.0000000000
     13864      1827  TIP3      H1            -12.3391305698       11.1980050590       46.0465257941  TIP3      1763            0.0000000000
     13865      1827  TIP3      H2            -13.3017085682       11.6441719907       44.9770430879  TIP3      1763            0.0000000000
     13866      1828  TIP3      OH2           -18.1890824634       10.8046476499       55.1361628959  TIP3      1764            0.0000000000
     13867      1828  TIP3      H1            -18.2782317395       10.7364390577       54.1679345667  TIP3      1764            0.0000000000
     13868      1828  TIP3      H2            -19.1127973472       10.6814999477       55.4315931269  TIP3      1764            0.0000000000
     13869      1829  TIP3      OH2            -6.7186239923       -4.1030675514       41.7126920050  TIP3      1765            0.0000000000
     13870      1829  TIP3      H1             -7.6784271772       -4.0151357524       41.9093584753  TIP3      1765            0.0000000000
     13871      1829  TIP3      H2             -6.5344827179       -3.2708291450       41.2412401951  TIP3      1765            0.0000000000
     13872      1830  TIP3      OH2           -18.7285764021        4.6328978910       43.6685289933  TIP3      1766            0.0000000000
     13873      1830  TIP3      H1            -19.0405806886        5.4099033060       43.1573028349  TIP3      1766            0.0000000000
     13874      1830  TIP3      H2            -19.3692768055        3.9621971818       43.4285862304  TIP3      1766            0.0000000000
     13875      1831  TIP3      OH2            -5.6236651377       10.2504000871       40.0258240042  TIP3      1767            0.0000000000
     13876      1831  TIP3      H1             -5.4296915832       11.1879141459       40.1993045840  TIP3      1767            0.0000000000
     13877      1831  TIP3      H2             -4.7131343176        9.9022975369       40.0579113768  TIP3      1767            0.0000000000
     13878      1832  TIP3      OH2           -22.6025601731        7.1317695138       52.5236386717  TIP3      1768            0.0000000000
     13879      1832  TIP3      H1            -22.9724534398        7.0026283871       51.6452942174  TIP3      1768            0.0000000000
     13880      1832  TIP3      H2            -22.5369409420        6.2049673494       52.7982580424  TIP3      1768            0.0000000000
     13881      1833  TIP3      OH2           -22.8648324776        9.8533083771       49.2002679690  TIP3      1769            0.0000000000
     13882      1833  TIP3      H1            -21.9155540722        9.6752918402       49.2802545276  TIP3      1769            0.0000000000
     13883      1833  TIP3      H2            -23.0129175561       10.5456182947       49.8586985186  TIP3      1769            0.0000000000
     13884      1834  TIP3      OH2            -4.6787211845       10.5205256850       55.0189592236  TIP3      1770            0.0000000000
     13885      1834  TIP3      H1             -4.8109104353        9.5620986644       54.9777650319  TIP3      1770            0.0000000000
     13886      1834  TIP3      H2             -5.5590935621       10.7743847450       55.3853487515  TIP3      1770            0.0000000000
     13887      1835  TIP3      OH2           -13.7287244519       10.0417966201       53.8688085005  TIP3      1771            0.0000000000
     13888      1835  TIP3      H1            -13.6807524652       10.8867720924       54.3782416725  TIP3      1771            0.0000000000
     13889      1835  TIP3      H2            -14.5988053682        9.6732066557       54.1151964280  TIP3      1771            0.0000000000
     13890      1836  TIP3      OH2           -13.2627772337       13.7793189520       43.6363837488  TIP3      1772            0.0000000000
     13891      1836  TIP3      H1            -13.3891011911       13.7274521257       42.6717233797  TIP3      1772            0.0000000000
     13892      1836  TIP3      H2            -13.2738041384       14.7387170082       43.8161780605  TIP3      1772            0.0000000000
     13893      1837  TIP3      OH2           -19.6250172577       12.6655519459       45.4637727164  TIP3      1773            0.0000000000
     13894      1837  TIP3      H1            -19.4927655285       12.2585868429       46.3462350030  TIP3      1773            0.0000000000
     13895      1837  TIP3      H2            -20.4669223831       12.2375570608       45.2295688376  TIP3      1773            0.0000000000
     13896      1838  TIP3      OH2           -10.2112460507       13.0178959491       40.6275001574  TIP3      1774            0.0000000000
     13897      1838  TIP3      H1             -9.7364216163       12.2628573578       40.2012771018  TIP3      1774            0.0000000000
     13898      1838  TIP3      H2            -10.1742445772       12.7666963412       41.5718995813  TIP3      1774            0.0000000000
     13899      1839  TIP3      OH2           -10.5196401306       12.9509899580       43.4141989543  TIP3      1775            0.0000000000
     13900      1839  TIP3      H1            -11.4853025052       13.0253763578       43.5575768439  TIP3      1775            0.0000000000
     13901      1839  TIP3      H2            -10.3120890543       12.1952332186       43.9832908841  TIP3      1775            0.0000000000
     13902      1840  TIP3      OH2            -7.5348472009        1.9620835134       55.4682592283  TIP3      1776            0.0000000000
     13903      1840  TIP3      H1             -8.0298116867        2.4092900309       54.7603740390  TIP3      1776            0.0000000000
     13904      1840  TIP3      H2             -7.5735730994        1.0380021854       55.1769249626  TIP3      1776            0.0000000000
     13905      1841  TIP3      OH2           -20.3790698924        8.4218790685       53.5090403156  TIP3      1777            0.0000000000
     13906      1841  TIP3      H1            -20.2303061381        8.0763026678       54.4114878559  TIP3      1777            0.0000000000
     13907      1841  TIP3      H2            -21.2569741106        8.0280815809       53.2840747892  TIP3      1777            0.0000000000
     13908      1842  TIP3      OH2           -17.6842324941       -3.0834137900       49.3813470804  TIP3      1778            0.0000000000
     13909      1842  TIP3      H1            -18.5936653725       -3.2530462107       49.0455328150  TIP3      1778            0.0000000000
     13910      1842  TIP3      H2            -17.8627419668       -2.2972597117       49.9219250865  TIP3      1778            0.0000000000
     13911      1843  TIP3      OH2           -13.0743241354       -3.4658099184       52.7184717499  TIP3      1779            0.0000000000
     13912      1843  TIP3      H1            -12.6199119495       -3.8520921357       53.5006239532  TIP3      1779            0.0000000000
     13913      1843  TIP3      H2            -14.0307542609       -3.5886452371       52.9310968674  TIP3      1779            0.0000000000
     13914      1844  TIP3      OH2            -9.7892131544        0.4007338092       53.6882392260  TIP3      1780            0.0000000000
     13915      1844  TIP3      H1            -10.3602225340        0.1631072444       54.4578135821  TIP3      1780            0.0000000000
     13916      1844  TIP3      H2             -9.9737272243        1.3353238568       53.4799678310  TIP3      1780            0.0000000000
     13917      1845  TIP3      OH2            -9.0090714249        5.2276308700       39.6636777156  TIP3      1781            0.0000000000
     13918      1845  TIP3      H1             -9.0779396370        5.0317331203       38.7023929773  TIP3      1781            0.0000000000
     13919      1845  TIP3      H2             -8.1487034614        5.6709758402       39.6512743903  TIP3      1781            0.0000000000
     13920      1846  TIP3      OH2           -13.4620221456       -0.8499565391       40.0797643607  TIP3      1782            0.0000000000
     13921      1846  TIP3      H1            -13.7384703727       -0.9370777836       41.0080366987  TIP3      1782            0.0000000000
     13922      1846  TIP3      H2            -13.7352992996       -1.7386263854       39.7821959065  TIP3      1782            0.0000000000
     13923      1847  TIP3      OH2           -17.5996985270        1.8570922741       50.7297650899  TIP3      1783            0.0000000000
     13924      1847  TIP3      H1            -18.3306231060        1.8611170683       51.3676860806  TIP3      1783            0.0000000000
     13925      1847  TIP3      H2            -17.6580247227        2.7500826359       50.3154287073  TIP3      1783            0.0000000000
     13926      1848  TIP3      OH2           -17.6142265068        1.9166107236       45.5487704721  TIP3      1784            0.0000000000
     13927      1848  TIP3      H1            -18.5771650094        1.7323865561       45.4347278583  TIP3      1784            0.0000000000
     13928      1848  TIP3      H2            -17.2967052986        1.6470702636       44.6655397579  TIP3      1784            0.0000000000
     13929      1849  TIP3      OH2           -12.1133920978        2.4687976634       44.3293570315  TIP3      1785            0.0000000000
     13930      1849  TIP3      H1            -12.5033027457        3.2881500870       43.9453443890  TIP3      1785            0.0000000000
     13931      1849  TIP3      H2            -11.4420780320        2.2705693989       43.6532214782  TIP3      1785            0.0000000000
     13932      1850  TIP3      OH2           -13.0906063745        2.6779811520       55.7368603568  TIP3      1786            0.0000000000
     13933      1850  TIP3      H1            -13.5880401730        1.8829682643       56.0443263013  TIP3      1786            0.0000000000
     13934      1850  TIP3      H2            -12.2481417281        2.5822968316       56.2121429274  TIP3      1786            0.0000000000
     13935      1851  TIP3      OH2           -11.0688793395        1.9707242881       47.1834697806  TIP3      1787            0.0000000000
     13936      1851  TIP3      H1            -11.3831679769        2.5336212166       46.4551154468  TIP3      1787            0.0000000000
     13937      1851  TIP3      H2            -11.0063219273        1.1197595161       46.7151370452  TIP3      1787            0.0000000000
     13938      1852  TIP3      OH2           -20.0548450917        2.0915283139       52.3547812598  TIP3      1788            0.0000000000
     13939      1852  TIP3      H1            -19.9199622457        2.4633179661       53.2398285850  TIP3      1788            0.0000000000
     13940      1852  TIP3      H2            -20.3849633472        1.1997978884       52.5640624824  TIP3      1788            0.0000000000
     13941      1853  TIP3      OH2           -16.6711768769       -0.5881515658       39.1666582871  TIP3      1789            0.0000000000
     13942      1853  TIP3      H1            -17.0914601150       -0.8908869850       39.9970579941  TIP3      1789            0.0000000000
     13943      1853  TIP3      H2            -17.3247301997       -0.0163202976       38.7398776258  TIP3      1789            0.0000000000
     13944      1854  TIP3      OH2           -22.1220800587       -0.7255147778       46.0961827766  TIP3      1790            0.0000000000
     13945      1854  TIP3      H1            -22.3906578454       -0.9218025856       47.0041949618  TIP3      1790            0.0000000000
     13946      1854  TIP3      H2            -22.7499897647       -1.2594630085       45.5905786416  TIP3      1790            0.0000000000
     13947      1855  TIP3      OH2           -22.0312948372        0.0073447629       41.7962188914  TIP3      1791            0.0000000000
     13948      1855  TIP3      H1            -21.4830345374        0.5024964842       41.1457356154  TIP3      1791            0.0000000000
     13949      1855  TIP3      H2            -22.7297870704        0.6340048028       41.9579634639  TIP3      1791            0.0000000000
     13950      1856  TIP3      OH2           -11.9141402971        3.5214113032       51.6789615914  TIP3      1792            0.0000000000
     13951      1856  TIP3      H1            -11.5084216624        2.8224531050       51.1211740075  TIP3      1792            0.0000000000
     13952      1856  TIP3      H2            -12.3911845868        3.0053767374       52.3534632552  TIP3      1792            0.0000000000
     13953      1857  TIP3      OH2           -15.0772471866       -0.4580267895       46.5573016623  TIP3      1793            0.0000000000
     13954      1857  TIP3      H1            -16.0114570554       -0.4778839132       46.8302230888  TIP3      1793            0.0000000000
     13955      1857  TIP3      H2            -14.6099609659       -0.6946381608       47.3716564050  TIP3      1793            0.0000000000
     13956      1858  TIP3      OH2           -20.1547405670        1.1227279895       45.3659585365  TIP3      1794            0.0000000000
     13957      1858  TIP3      H1            -21.0890692963        1.2139929177       45.0892322696  TIP3      1794            0.0000000000
     13958      1858  TIP3      H2            -19.9942785407        0.2067450098       45.0700843645  TIP3      1794            0.0000000000
     13959      1859  TIP3      OH2           -16.6539385374        1.1179918216       43.0475201136  TIP3      1795            0.0000000000
     13960      1859  TIP3      H1            -15.6957561800        1.2140329711       43.1852711468  TIP3      1795            0.0000000000
     13961      1859  TIP3      H2            -16.8925901977        1.8083121940       42.4027821271  TIP3      1795            0.0000000000
     13962      1860  TIP3      OH2           -10.6796212519       -1.1978136620       49.7406947743  TIP3      1796            0.0000000000
     13963      1860  TIP3      H1            -11.3424538901       -1.2045439336       50.4693967279  TIP3      1796            0.0000000000
     13964      1860  TIP3      H2            -11.1903032568       -1.5347311848       48.9918990262  TIP3      1796            0.0000000000
     13965      1861  TIP3      OH2           -17.9267774330        2.3155964918       40.6334971582  TIP3      1797            0.0000000000
     13966      1861  TIP3      H1            -18.4453301921        1.9491700241       39.9043003429  TIP3      1797            0.0000000000
     13967      1861  TIP3      H2            -17.0998713004        2.5165423597       40.1676643950  TIP3      1797            0.0000000000
     13968      1862  TIP3      OH2            -7.5061570576       14.3906200364       56.1197518947  TIP3      1798            0.0000000000
     13969      1862  TIP3      H1             -7.2315900214       14.7571313390       55.2589658273  TIP3      1798            0.0000000000
     13970      1862  TIP3      H2             -6.7773996376       14.7037736479       56.6757484019  TIP3      1798            0.0000000000
     13971      1863  TIP3      OH2           -19.7650443166        6.8051952763       55.6907898314  TIP3      1799            0.0000000000
     13972      1863  TIP3      H1            -19.0404579765        7.0917071180       56.2747769781  TIP3      1799            0.0000000000
     13973      1863  TIP3      H2            -20.5348561770        6.9252591719       56.2999269307  TIP3      1799            0.0000000000
     13974      1864  TIP3      OH2           -13.8240495974        2.2735306981       48.4417973351  TIP3      1800            0.0000000000
     13975      1864  TIP3      H1            -13.2177323725        1.7500884707       47.9103183897  TIP3      1800            0.0000000000
     13976      1864  TIP3      H2            -13.9657831851        1.7171737183       49.2196522524  TIP3      1800            0.0000000000
     13977      1865  TIP3      OH2           -18.8525724173       -1.5776345615       44.8158279904  TIP3      1801            0.0000000000
     13978      1865  TIP3      H1            -19.1296240774       -2.5019650396       44.9427829042  TIP3      1801            0.0000000000
     13979      1865  TIP3      H2            -18.0010212322       -1.6897908677       44.3711014316  TIP3      1801            0.0000000000
     13980      1866  TIP3      OH2           -15.1742224990        0.5822905969       50.8621354204  TIP3      1802            0.0000000000
     13981      1866  TIP3      H1            -15.9910634107        1.1216560154       50.9301774491  TIP3      1802            0.0000000000
     13982      1866  TIP3      H2            -14.6080294775        0.9608831848       51.5584009772  TIP3      1802            0.0000000000
     13983      1867  TIP3      OH2           -14.5871891537        6.8016887471       42.5696709299  TIP3      1803            0.0000000000
     13984      1867  TIP3      H1            -15.3934482248        6.3549963289       42.2212575756  TIP3      1803            0.0000000000
     13985      1867  TIP3      H2            -14.8417222808        6.9715141065       43.4996544787  TIP3      1803            0.0000000000
     13986      1868  TIP3      OH2            -7.3590216537        6.0526647565       51.3610119788  TIP3      1804            0.0000000000
     13987      1868  TIP3      H1             -6.8261447648        6.5390127088       50.7024555470  TIP3      1804            0.0000000000
     13988      1868  TIP3      H2             -8.2300523348        6.0475638121       50.9148140761  TIP3      1804            0.0000000000
     13989      1869  TIP3      OH2           -10.7820282430       -0.3880668612       40.7457797972  TIP3      1805            0.0000000000
     13990      1869  TIP3      H1            -11.7237809365       -0.2046269122       40.5913866544  TIP3      1805            0.0000000000
     13991      1869  TIP3      H2            -10.4229193719        0.4582151568       41.0950665667  TIP3      1805            0.0000000000
     13992      1870  TIP3      OH2           -13.0928962931        7.1209236910       53.8031337359  TIP3      1806            0.0000000000
     13993      1870  TIP3      H1            -13.4424628342        6.6587071639       54.5726339786  TIP3      1806            0.0000000000
     13994      1870  TIP3      H2            -13.3869797198        8.0265975785       53.9426387114  TIP3      1806            0.0000000000
     13995      1871  TIP3      OH2           -10.0373771446        1.5807821610       42.3103161835  TIP3      1807            0.0000000000
     13996      1871  TIP3      H1             -9.1777878671        1.4400203098       42.7654557512  TIP3      1807            0.0000000000
     13997      1871  TIP3      H2             -9.9018955476        2.4073098592       41.8204198933  TIP3      1807            0.0000000000
     13998      1872  TIP3      OH2           -19.4673952042        6.2551712123       48.3748818150  TIP3      1808            0.0000000000
     13999      1872  TIP3      H1            -18.8593436976        6.1485353855       47.6189608706  TIP3      1808            0.0000000000
     14000      1872  TIP3      H2            -19.3958779754        5.3906339142       48.8139067113  TIP3      1808            0.0000000000
     14001      1873  TIP3      OH2           -12.5090235475        8.2744626569       41.5937871928  TIP3      1809            0.0000000000
     14002      1873  TIP3      H1            -12.8540674531        9.1280613149       41.9362910475  TIP3      1809            0.0000000000
     14003      1873  TIP3      H2            -13.2329391633        7.6557178335       41.8273124699  TIP3      1809            0.0000000000
     14004      1874  TIP3      OH2           -22.2316621201        4.6616874598       53.6859925304  TIP3      1810            0.0000000000
     14005      1874  TIP3      H1            -22.0938032944        4.2273899647       54.5498311371  TIP3      1810            0.0000000000
     14006      1874  TIP3      H2            -23.0317184987        4.1886110785       53.3674087140  TIP3      1810            0.0000000000
     14007      1875  TIP3      OH2           -15.4704426257        4.1843939076       55.7727753905  TIP3      1811            0.0000000000
     14008      1875  TIP3      H1            -15.8118559994        3.8247842107       54.9380717012  TIP3      1811            0.0000000000
     14009      1875  TIP3      H2            -14.5571755207        3.8261251286       55.7679553540  TIP3      1811            0.0000000000
     14010      1876  TIP3      OH2           -10.7590257907        9.5281869624       53.7756913487  TIP3      1812            0.0000000000
     14011      1876  TIP3      H1            -11.6844771907        9.6880224260       53.5262098915  TIP3      1812            0.0000000000
     14012      1876  TIP3      H2            -10.8126331090        9.8241692490       54.7058252412  TIP3      1812            0.0000000000
     14013      1877  TIP3      OH2            -5.1224687602        1.6664736999       42.1302936376  TIP3      1813            0.0000000000
     14014      1877  TIP3      H1             -5.6918435096        1.4181493905       41.3759522812  TIP3      1813            0.0000000000
     14015      1877  TIP3      H2             -5.0437044969        2.6254516177       41.9211851185  TIP3      1813            0.0000000000
     14016      1878  TIP3      OH2            -5.1293830414        7.5469308732       54.9172872706  TIP3      1814            0.0000000000
     14017      1878  TIP3      H1             -6.0258342788        7.7771416658       54.5711599422  TIP3      1814            0.0000000000
     14018      1878  TIP3      H2             -4.5941066400        7.4903533861       54.0947523860  TIP3      1814            0.0000000000
     14019      1879  TIP3      OH2            -6.8926567348       10.5069240553       42.5046353103  TIP3      1815            0.0000000000
     14020      1879  TIP3      H1             -7.2037687969        9.6688071925       42.8672144049  TIP3      1815            0.0000000000
     14021      1879  TIP3      H2             -6.5003145784       10.2700765976       41.6484953867  TIP3      1815            0.0000000000
     14022      1880  TIP3      OH2            -9.6065370807        5.3362819793       49.6380728533  TIP3      1816            0.0000000000
     14023      1880  TIP3      H1            -10.5479226674        5.1442518379       49.4990519307  TIP3      1816            0.0000000000
     14024      1880  TIP3      H2             -9.1772566954        4.5924542769       49.1748307687  TIP3      1816            0.0000000000
     14025      1881  TIP3      OH2           -17.1020801781        9.6914910150       45.7726799480  TIP3      1817            0.0000000000
     14026      1881  TIP3      H1            -16.6051986359       10.4939240121       45.5462188915  TIP3      1817            0.0000000000
     14027      1881  TIP3      H2            -17.9711262536        9.8998780837       45.4020439597  TIP3      1817            0.0000000000
     14028      1882  TIP3      OH2           -21.5059943067        4.5238018582       40.3216057767  TIP3      1818            0.0000000000
     14029      1882  TIP3      H1            -20.7907313929        5.1122332571       40.6656036627  TIP3      1818            0.0000000000
     14030      1882  TIP3      H2            -22.2774525765        4.9965721068       40.6580575334  TIP3      1818            0.0000000000
     14031      1883  TIP3      OH2           -15.7146078977        7.3496218530       45.2237842704  TIP3      1819            0.0000000000
     14032      1883  TIP3      H1            -16.0446936368        8.2597982353       45.3504419042  TIP3      1819            0.0000000000
     14033      1883  TIP3      H2            -16.4000472818        6.8278819091       45.6888363505  TIP3      1819            0.0000000000
     14034      1884  TIP3      OH2           -15.2593753980       11.5411982339       51.7103295923  TIP3      1820            0.0000000000
     14035      1884  TIP3      H1            -14.7630423637       12.3105655671       51.3887132639  TIP3      1820            0.0000000000
     14036      1884  TIP3      H2            -14.6193784927       11.1668947173       52.3439157693  TIP3      1820            0.0000000000
     14037      1885  TIP3      OH2           -17.0092620128       12.3112442365       44.7540472049  TIP3      1821            0.0000000000
     14038      1885  TIP3      H1            -17.9739856117       12.4472502985       44.9125093309  TIP3      1821            0.0000000000
     14039      1885  TIP3      H2            -16.6390960025       13.1506453887       45.0855192537  TIP3      1821            0.0000000000
     14040      1886  TIP3      OH2           -11.7641606911        7.4875096579       51.2748275767  TIP3      1822            0.0000000000
     14041      1886  TIP3      H1            -12.0313340327        7.3148267214       52.2031101198  TIP3      1822            0.0000000000
     14042      1886  TIP3      H2            -11.1017017023        6.7958250266       51.1074359858  TIP3      1822            0.0000000000
     14043      1887  TIP3      OH2            -9.3408511873        8.6279662184       40.3762651371  TIP3      1823            0.0000000000
     14044      1887  TIP3      H1             -9.0573733961        8.1294731804       41.1688526679  TIP3      1823            0.0000000000
     14045      1887  TIP3      H2            -10.2911870276        8.4210863680       40.4287304080  TIP3      1823            0.0000000000
     14046      1888  TIP3      OH2            -8.8746493309       12.0906696200       53.7622468099  TIP3      1824            0.0000000000
     14047      1888  TIP3      H1             -9.5916563907       11.6086834611       53.3095179152  TIP3      1824            0.0000000000
     14048      1888  TIP3      H2             -8.7126739263       12.7909105907       53.0918946995  TIP3      1824            0.0000000000
     14049      1889  TIP3      OH2            -4.9125585470       12.9465413369       40.6374459837  TIP3      1825            0.0000000000
     14050      1889  TIP3      H1             -4.2377306450       13.6147508820       40.4117980975  TIP3      1825            0.0000000000
     14051      1889  TIP3      H2             -5.6287200985       13.5502822102       40.9286577420  TIP3      1825            0.0000000000
     14052      1890  TIP3      OH2           -20.8135495180       -0.6636648106       53.0891906745  TIP3      1826            0.0000000000
     14053      1890  TIP3      H1            -21.6848152890       -0.2524317781       53.2683086089  TIP3      1826            0.0000000000
     14054      1890  TIP3      H2            -20.9082844957       -1.4800369956       53.6078392529  TIP3      1826            0.0000000000
     14055      1891  TIP3      OH2            -8.6064581659        7.2393709154       42.6285095118  TIP3      1827            0.0000000000
     14056      1891  TIP3      H1             -8.8438897156        6.4388413525       43.1422418082  TIP3      1827            0.0000000000
     14057      1891  TIP3      H2             -7.6454815525        7.2578045636       42.7785545346  TIP3      1827            0.0000000000
     14058      1892  TIP3      OH2           -21.2365645013       11.0866253844       51.6382423263  TIP3      1828            0.0000000000
     14059      1892  TIP3      H1            -20.8422964761       10.2036877066       51.5860283000  TIP3      1828            0.0000000000
     14060      1892  TIP3      H2            -20.8775869714       11.4124246447       52.4672037719  TIP3      1828            0.0000000000
     14061      1893  TIP3      OH2           -15.2192266830        9.6799991171       38.8960248866  TIP3      1829            0.0000000000
     14062      1893  TIP3      H1            -15.1589137555        8.9269904638       38.2850256017  TIP3      1829            0.0000000000
     14063      1893  TIP3      H2            -15.7200387890        9.2536389863       39.6241565401  TIP3      1829            0.0000000000
     14064      1894  TIP3      OH2           -16.5244364219        9.1861183038       41.3597735424  TIP3      1830            0.0000000000
     14065      1894  TIP3      H1            -16.1575338248        8.6745093560       42.0928787128  TIP3      1830            0.0000000000
     14066      1894  TIP3      H2            -16.4199119130       10.1120653805       41.6721490244  TIP3      1830            0.0000000000
     14067      1895  TIP3      OH2           -19.9194580247        6.4270288858       41.7860093191  TIP3      1831            0.0000000000
     14068      1895  TIP3      H1            -20.6458549801        6.8671578248       42.2905877218  TIP3      1831            0.0000000000
     14069      1895  TIP3      H2            -19.4032101062        7.2118209019       41.5202650573  TIP3      1831            0.0000000000
     14070      1896  TIP3      OH2           -12.0786555244       -0.8628206053       52.1562893022  TIP3      1832            0.0000000000
     14071      1896  TIP3      H1            -11.3689495274       -0.8085130797       52.8014946836  TIP3      1832            0.0000000000
     14072      1896  TIP3      H2            -12.4706171004       -1.7332914855       52.3719483641  TIP3      1832            0.0000000000
     14073      1897  TIP3      OH2           -11.3772459761       -1.3296402785       43.2376064081  TIP3      1833            0.0000000000
     14074      1897  TIP3      H1            -11.1396316426       -0.8896944882       42.3966885073  TIP3      1833            0.0000000000
     14075      1897  TIP3      H2            -10.7944701828       -0.8772285499       43.8628883582  TIP3      1833            0.0000000000
     14076      1898  TIP3      OH2           -13.6722027050       10.8468978981       42.0071617410  TIP3      1834            0.0000000000
     14077      1898  TIP3      H1            -14.4925548398       11.3743614699       42.0970737785  TIP3      1834            0.0000000000
     14078      1898  TIP3      H2            -13.1251100355       11.4227925326       41.4551236508  TIP3      1834            0.0000000000
     14079      1899  TIP3      OH2           -14.1178398844        0.4188957914       44.0459755152  TIP3      1835            0.0000000000
     14080      1899  TIP3      H1            -13.3645595723        1.0392063191       44.1044978668  TIP3      1835            0.0000000000
     14081      1899  TIP3      H2            -14.4089705817        0.2997492305       44.9724441353  TIP3      1835            0.0000000000
     14082      1900  TIP3      OH2           -13.5613077317        1.4668227619       53.2584458368  TIP3      1836            0.0000000000
     14083      1900  TIP3      H1            -13.4819474272        2.0128469504       54.0663441179  TIP3      1836            0.0000000000
     14084      1900  TIP3      H2            -12.9001683242        0.7625322241       53.3375901161  TIP3      1836            0.0000000000
     14085      1901  TIP3      OH2           -13.2986150643       -2.5287762429       44.8857826432  TIP3      1837            0.0000000000
     14086      1901  TIP3      H1            -13.6202938326       -1.8879799958       45.5366477071  TIP3      1837            0.0000000000
     14087      1901  TIP3      H2            -12.5866084071       -1.9814172963       44.4690897075  TIP3      1837            0.0000000000
     14088      1902  TIP3      OH2           -16.2569377524       11.8662389942       42.0508650919  TIP3      1838            0.0000000000
     14089      1902  TIP3      H1            -16.1830178960       12.6744458867       41.4854291228  TIP3      1838            0.0000000000
     14090      1902  TIP3      H2            -16.5512517177       12.2512332746       42.9080746460  TIP3      1838            0.0000000000
     14091      1903  TIP3      OH2           -17.5949134959       -1.4143573843       41.6457330671  TIP3      1839            0.0000000000
     14092      1903  TIP3      H1            -17.6599283589       -0.5212958502       42.0452300829  TIP3      1839            0.0000000000
     14093      1903  TIP3      H2            -16.6738032219       -1.6317734242       41.9073510786  TIP3      1839            0.0000000000
     14094      1904  TIP3      OH2            -7.4195646501       -0.6726207282       54.0873973640  TIP3      1840            0.0000000000
     14095      1904  TIP3      H1             -8.3391012800       -0.3375235915       53.9502595359  TIP3      1840            0.0000000000
     14096      1904  TIP3      H2             -7.1227073601       -0.7259139624       53.1642528258  TIP3      1840            0.0000000000
     14097      1905  TIP3      OH2            -8.7735947337        3.1215467160       48.0588265877  TIP3      1841            0.0000000000
     14098      1905  TIP3      H1             -9.6007255926        2.6611768124       47.8103997743  TIP3      1841            0.0000000000
     14099      1905  TIP3      H2             -8.2781842037        2.4467801162       48.5745105364  TIP3      1841            0.0000000000
     14100      1906  TIP3      OH2           -19.3693984181        9.0586784706       40.6563903917  TIP3      1842            0.0000000000
     14101      1906  TIP3      H1            -18.6837594293        9.6511133372       40.9927949960  TIP3      1842            0.0000000000
     14102      1906  TIP3      H2            -18.8737047421        8.5539939151       39.9884650648  TIP3      1842            0.0000000000
     14103      1907  TIP3      OH2           -21.1028357227        1.7313586259       39.7816765843  TIP3      1843            0.0000000000
     14104      1907  TIP3      H1            -21.0891276759        2.6693327334       40.0432624699  TIP3      1843            0.0000000000
     14105      1907  TIP3      H2            -21.9894122753        1.5705779214       39.4561045720  TIP3      1843            0.0000000000
     14106      1908  TIP3      OH2            -7.7120773281       12.4024116953       49.7335450774  TIP3      1844            0.0000000000
     14107      1908  TIP3      H1             -7.7864550697       13.0736436365       49.0290697620  TIP3      1844            0.0000000000
     14108      1908  TIP3      H2             -6.7470880872       12.4349140810       49.9122153824  TIP3      1844            0.0000000000
     14109      1909  TIP3      OH2           -20.2024193939       -3.5355218753       48.5856488258  TIP3      1845            0.0000000000
     14110      1909  TIP3      H1            -20.3686932205       -3.4765948007       47.6166716370  TIP3      1845            0.0000000000
     14111      1909  TIP3      H2            -20.6795535351       -4.3677503315       48.7806313945  TIP3      1845            0.0000000000
     14112      1910  TIP3      OH2           -21.2753191011       10.4831424974       44.7906290258  TIP3      1846            0.0000000000
     14113      1910  TIP3      H1            -22.1347451779       10.8924288045       44.6534247956  TIP3      1846            0.0000000000
     14114      1910  TIP3      H2            -20.8318603281       10.8003700933       43.9962171387  TIP3      1846            0.0000000000
     14115      1911  TIP3      OH2           -22.0348733088       13.0618657308       55.9258185992  TIP3      1847            0.0000000000
     14116      1911  TIP3      H1            -21.4611754438       12.9448728842       56.7062585081  TIP3      1847            0.0000000000
     14117      1911  TIP3      H2            -22.4619889530       12.2008192889       55.8705020790  TIP3      1847            0.0000000000
     14118      1912  TIP3      OH2           -17.3778641529       11.9801189158       57.5683997845  TIP3      1848            0.0000000000
     14119      1912  TIP3      H1            -16.6235771450       11.4879615868       57.9117356772  TIP3      1848            0.0000000000
     14120      1912  TIP3      H2            -17.4348948662       11.6711114811       56.6442866092  TIP3      1848            0.0000000000
     14121      1913  TIP3      OH2           -13.2216336675       11.5250104342       39.0121376736  TIP3      1849            0.0000000000
     14122      1913  TIP3      H1            -13.9344848105       10.8662064915       39.1837443568  TIP3      1849            0.0000000000
     14123      1913  TIP3      H2            -12.5193060495       10.9152405005       38.7415752619  TIP3      1849            0.0000000000
     14124      1914  TIP3      OH2           -10.9186270231       10.3959081166       56.3645801797  TIP3      1850            0.0000000000
     14125      1914  TIP3      H1            -11.2273128464        9.5071301067       56.6448432691  TIP3      1850            0.0000000000
     14126      1914  TIP3      H2            -10.1310788112       10.5122391695       56.9319587128  TIP3      1850            0.0000000000
     14127      1915  TIP3      OH2            -8.6836553710       11.2400247896       39.1758731968  TIP3      1851            0.0000000000
     14128      1915  TIP3      H1             -8.3976039272       10.4711315936       39.6962752230  TIP3      1851            0.0000000000
     14129      1915  TIP3      H2             -7.9161363157       11.4339959836       38.6201542238  TIP3      1851            0.0000000000
     14130      1916  TIP3      OH2           -22.0150983477        6.9091187542       56.9983233621  TIP3      1852            0.0000000000
     14131      1916  TIP3      H1            -21.9736345336        5.9618406932       56.7866236021  TIP3      1852            0.0000000000
     14132      1916  TIP3      H2            -22.8770158545        7.1043591760       56.5725819056  TIP3      1852            0.0000000000
     14133      1917  TIP3      OH2           -17.8089944109        7.1945617384       38.9584761988  TIP3      1853            0.0000000000
     14134      1917  TIP3      H1            -17.6720369391        6.4576114914       39.5720463934  TIP3      1853            0.0000000000
     14135      1917  TIP3      H2            -17.0335776067        7.0783410361       38.3746691372  TIP3      1853            0.0000000000
     14136      1918  TIP3      OH2           -15.4526730011        6.8464690275       56.3607358324  TIP3      1854            0.0000000000
     14137      1918  TIP3      H1            -15.7816831323        7.1823753748       55.5027875810  TIP3      1854            0.0000000000
     14138      1918  TIP3      H2            -15.4016244046        5.8684790753       56.2363489194  TIP3      1854            0.0000000000
     14139      1919  TIP3      OH2           -12.3646396873        8.3209868080       38.7731585948  TIP3      1855            0.0000000000
     14140      1919  TIP3      H1            -12.6362947476        8.3730057149       39.7047478806  TIP3      1855            0.0000000000
     14141      1919  TIP3      H2            -12.5392100836        7.3673689268       38.6044255342  TIP3      1855            0.0000000000
     14142      1920  TIP3      OH2            -9.7718490594        6.6830310346       53.7693544883  TIP3      1856            0.0000000000
     14143      1920  TIP3      H1             -8.9634528760        7.2422687844       53.7375661375  TIP3      1856            0.0000000000
     14144      1920  TIP3      H2            -10.4472132279        7.3789623548       53.7861659551  TIP3      1856            0.0000000000
     14145      1921  TIP3      OH2           -21.4352789836        3.9756318944       56.3774985635  TIP3      1857            0.0000000000
     14146      1921  TIP3      H1            -20.7512733559        3.2921143029       56.2832781372  TIP3      1857            0.0000000000
     14147      1921  TIP3      H2            -21.3775754847        4.1356803083       57.3356632628  TIP3      1857            0.0000000000
     14148      1922  TIP3      OH2           -16.5841432710        5.2175399291       41.4681880973  TIP3      1858            0.0000000000
     14149      1922  TIP3      H1            -17.1287686239        4.6708503784       42.0549569631  TIP3      1858            0.0000000000
     14150      1922  TIP3      H2            -16.2694212915        4.5621176539       40.8068686614  TIP3      1858            0.0000000000
     14151      1923  TIP3      OH2           -17.3221276602        3.0216883989       53.7086626145  TIP3      1859            0.0000000000
     14152      1923  TIP3      H1            -17.9514418425        3.7196060928       53.9615563606  TIP3      1859            0.0000000000
     14153      1923  TIP3      H2            -16.9234928441        3.4019272247       52.9073175340  TIP3      1859            0.0000000000
     14154      1924  TIP3      OH2           -15.5578766116        3.4592077311       39.6246911555  TIP3      1860            0.0000000000
     14155      1924  TIP3      H1            -15.6929983259        3.3778452241       38.6594531824  TIP3      1860            0.0000000000
     14156      1924  TIP3      H2            -14.5777667892        3.4743593121       39.7049489040  TIP3      1860            0.0000000000
     14157      1925  TIP3      OH2           -12.2480268826        5.6082019636       57.0771898668  TIP3      1861            0.0000000000
     14158      1925  TIP3      H1            -11.3029131294        5.5440839113       56.8952696720  TIP3      1861            0.0000000000
     14159      1925  TIP3      H2            -12.4306819312        4.8251050614       57.6236020979  TIP3      1861            0.0000000000
     14160      1926  TIP3      OH2            -6.2396453461        5.7496085125       39.0235792040  TIP3      1862            0.0000000000
     14161      1926  TIP3      H1             -6.3812711151        5.3926830293       38.1287567859  TIP3      1862            0.0000000000
     14162      1926  TIP3      H2             -6.1269850150        6.7157852373       38.8534249761  TIP3      1862            0.0000000000
     14163      1927  TIP3      OH2           -16.8772856743        0.4080806659       54.7496281488  TIP3      1863            0.0000000000
     14164      1927  TIP3      H1            -16.8319668685       -0.2995395457       54.0805574350  TIP3      1863            0.0000000000
     14165      1927  TIP3      H2            -17.0017755181        1.2112530814       54.2085947042  TIP3      1863            0.0000000000
     14166      1928  TIP3      OH2           -16.5139583131       -1.2259428986       52.3273188860  TIP3      1864            0.0000000000
     14167      1928  TIP3      H1            -16.0119670977       -0.7483344611       51.6233780484  TIP3      1864            0.0000000000
     14168      1928  TIP3      H2            -17.4136430432       -1.2871499944       51.9346731153  TIP3      1864            0.0000000000
     14169      1929  TIP3      OH2           -14.9912765770        4.3114594308       52.5689920935  TIP3      1865            0.0000000000
     14170      1929  TIP3      H1            -14.2374026853        4.1291523728       52.0020739041  TIP3      1865            0.0000000000
     14171      1929  TIP3      H2            -15.3732703764        5.1253398893       52.2014146044  TIP3      1865            0.0000000000
     14172      1930  TIP3      OH2           -10.6078972572        1.9899986008       57.4995679636  TIP3      1866            0.0000000000
     14173      1930  TIP3      H1            -10.3478446512        1.0562019630       57.4259784193  TIP3      1866            0.0000000000
     14174      1930  TIP3      H2             -9.7537533300        2.4526160697       57.5599194524  TIP3      1866            0.0000000000
     14175      1931  TIP3      OH2            -9.2431473546        4.8206391024       55.7277395669  TIP3      1867            0.0000000000
     14176      1931  TIP3      H1             -9.5055268391        5.5270852561       55.0972030200  TIP3      1867            0.0000000000
     14177      1931  TIP3      H2             -8.2826901531        4.7880931863       55.5359963476  TIP3      1867            0.0000000000
     14178      1932  TIP3      OH2           -18.4991848164        1.6873902973       56.6578525107  TIP3      1868            0.0000000000
     14179      1932  TIP3      H1            -19.2246310332        1.0381947285       56.5465200485  TIP3      1868            0.0000000000
     14180      1932  TIP3      H2            -17.8330633380        1.2939361277       56.0640157743  TIP3      1868            0.0000000000
     14181      1933  TIP3      OH2           -15.7367461408       -3.7897000223       52.6789595362  TIP3      1869            0.0000000000
     14182      1933  TIP3      H1            -15.9492578405       -2.8299207620       52.6013512596  TIP3      1869            0.0000000000
     14183      1933  TIP3      H2            -16.4831677018       -4.1708069230       52.1823421259  TIP3      1869            0.0000000000
     14184      1934  TIP3      OH2           -14.4527700735        0.5379529591       56.3670935542  TIP3      1870            0.0000000000
     14185      1934  TIP3      H1            -14.8025580109        0.2990294590       57.2485596602  TIP3      1870            0.0000000000
     14186      1934  TIP3      H2            -15.2213592998        0.3349881816       55.8021044697  TIP3      1870            0.0000000000
     14187      1935  TIP3      OH2           -11.7391623928       -0.2966552993       55.4839340932  TIP3      1871            0.0000000000
     14188      1935  TIP3      H1            -12.7033452169       -0.2429136037       55.5746952336  TIP3      1871            0.0000000000
     14189      1935  TIP3      H2            -11.4836391038       -0.9549789430       56.1660293092  TIP3      1871            0.0000000000
     14190      1936  TIP3      OH2           -10.1766999420       -1.6230858372       57.3225187416  TIP3      1872            0.0000000000
     14191      1936  TIP3      H1            -10.1852795809       -2.6155131644       57.3224579755  TIP3      1872            0.0000000000
     14192      1936  TIP3      H2            -10.4042423556       -1.4081512627       58.2417457848  TIP3      1872            0.0000000000
     14193      1937  TIP3      OH2           -20.2541165250       -0.3862716295       56.5057980963  TIP3      1873            0.0000000000
     14194      1937  TIP3      H1            -20.1385870945       -1.1331339722       55.8924215331  TIP3      1873            0.0000000000
     14195      1937  TIP3      H2            -20.4508921043       -0.8679893427       57.3354557705  TIP3      1873            0.0000000000
     14196      1938  TIP3      OH2           -15.6085548248       -4.2747218366       55.4005929756  TIP3      1874            0.0000000000
     14197      1938  TIP3      H1            -15.0005110095       -5.0501774070       55.4679998444  TIP3      1874            0.0000000000
     14198      1938  TIP3      H2            -15.6775646655       -4.2519493227       54.4248268075  TIP3      1874            0.0000000000
     14199      1939  TIP3      OH2           -15.1888251313       -2.7699687746       57.5840995451  TIP3      1875            0.0000000000
     14200      1939  TIP3      H1            -15.3388483559       -3.2896784731       56.7534768793  TIP3      1875            0.0000000000
     14201      1939  TIP3      H2            -15.7730631691       -1.9979165026       57.4532216851  TIP3      1875            0.0000000000
     14202      1940  TIP3      OH2           -15.7115622381       14.1530888340       40.7299831997  TIP3      1876            0.0000000000
     14203      1940  TIP3      H1            -14.7418562793       14.1982695545       40.7885232821  TIP3      1876            0.0000000000
     14204      1940  TIP3      H2            -15.8342335081       14.7137731055       39.9517447704  TIP3      1876            0.0000000000
     14205      1941  TIP3      OH2           -22.0475205346        8.7923859067       40.1297866869  TIP3      1877            0.0000000000
     14206      1941  TIP3      H1            -21.1002356261        8.8169993382       40.3848259857  TIP3      1877            0.0000000000
     14207      1941  TIP3      H2            -22.0608699662        8.0989971378       39.4438835608  TIP3      1877            0.0000000000
     14208      1942  TIP3      OH2            23.5904251639       13.8576152555       44.8934399958  TIP3      1878            0.0000000000
     14209      1942  TIP3      H1             22.6710319209       13.6614120573       44.6977899785  TIP3      1878            0.0000000000
     14210      1942  TIP3      H2             23.7180983019       13.4403148418       45.7777632463  TIP3      1878            0.0000000000
     14211      1943  TIP3      OH2           -22.5223435903       12.2495383319       46.9845890111  TIP3      1879            0.0000000000
     14212      1943  TIP3      H1            -22.8148884747       11.3595033109       47.2167285370  TIP3      1879            0.0000000000
     14213      1943  TIP3      H2            -22.2531659371       12.6184321993       47.8515079207  TIP3      1879            0.0000000000
     14214      1944  TIP3      OH2            -4.9905922000       13.0383532527       49.9315854235  TIP3      1880            0.0000000000
     14215      1944  TIP3      H1             -4.9480469327       13.1699109714       50.8945571451  TIP3      1880            0.0000000000
     14216      1944  TIP3      H2             -4.2889467795       13.6260069796       49.6361270382  TIP3      1880            0.0000000000
     14217      1945  TIP3      OH2            -5.4255105572       12.6187229375       52.8817745905  TIP3      1881            0.0000000000
     14218      1945  TIP3      H1             -5.8996147315       11.8530756526       52.4929379272  TIP3      1881            0.0000000000
     14219      1945  TIP3      H2             -4.9782958951       12.1711638255       53.6199102628  TIP3      1881            0.0000000000
     14220      1946  TIP3      OH2            -6.9824004983        8.3292121971       57.5800531310  TIP3      1882            0.0000000000
     14221      1946  TIP3      H1             -7.8962594414        8.3259611800       57.9277326585  TIP3      1882            0.0000000000
     14222      1946  TIP3      H2             -6.6192285200        9.1509978814       57.9628106005  TIP3      1882            0.0000000000
     14223      1947  TIP3      OH2            -5.6629427158        6.6898470230       42.9690120546  TIP3      1883            0.0000000000
     14224      1947  TIP3      H1             -4.7899202228        7.0727517099       43.1664374829  TIP3      1883            0.0000000000
     14225      1947  TIP3      H2             -5.6978578424        5.9869692934       43.6498156829  TIP3      1883            0.0000000000
     14226      1948  TIP3      OH2            -5.3209352338        4.7729398610       44.8808975032  TIP3      1884            0.0000000000
     14227      1948  TIP3      H1             -6.0825642806        4.2839890383       45.2680211359  TIP3      1884            0.0000000000
     14228      1948  TIP3      H2             -4.7219851808        4.8721640365       45.6505529493  TIP3      1884            0.0000000000
     14229      1949  TIP3      OH2            -5.5557817755        7.4293728533       49.8679582634  TIP3      1885            0.0000000000
     14230      1949  TIP3      H1             -4.7602525063        7.0349490965       49.4707226830  TIP3      1885            0.0000000000
     14231      1949  TIP3      H2             -5.4018860113        8.3832116117       49.6978016517  TIP3      1885            0.0000000000
     14232      1950  TIP3      OH2            -6.9904886038       10.3509818569       52.1303203662  TIP3      1886            0.0000000000
     14233      1950  TIP3      H1             -7.6828834554       10.7030319972       52.7105419990  TIP3      1886            0.0000000000
     14234      1950  TIP3      H2             -7.5315854482        9.9660708397       51.4078451493  TIP3      1886            0.0000000000
     14235      1951  TIP3      OH2            -5.0107311583        4.5728294573       41.2705832710  TIP3      1887            0.0000000000
     14236      1951  TIP3      H1             -5.5934716427        4.8828389414       40.5478983705  TIP3      1887            0.0000000000
     14237      1951  TIP3      H2             -5.1357599439        5.2916402678       41.9195333049  TIP3      1887            0.0000000000
     14238      1952  TIP3      OH2            -6.6206259536        1.7833545090       39.7604389760  TIP3      1888            0.0000000000
     14239      1952  TIP3      H1             -6.5498211094        2.4454623691       39.0622953527  TIP3      1888            0.0000000000
     14240      1952  TIP3      H2             -6.8227214135        0.9602399829       39.2689349416  TIP3      1888            0.0000000000
     14241      1953  TIP3      OH2            -7.4833988460        3.2237265389       45.4727517020  TIP3      1889            0.0000000000
     14242      1953  TIP3      H1             -7.6300061626        2.2709313947       45.3992089729  TIP3      1889            0.0000000000
     14243      1953  TIP3      H2             -7.7885018227        3.4042842358       46.3839041527  TIP3      1889            0.0000000000
     14244      1954  TIP3      OH2           -22.5099086787        5.3151917635       49.5620856353  TIP3      1890            0.0000000000
     14245      1954  TIP3      H1            -22.3771261422        5.2366449570       48.5901793117  TIP3      1890            0.0000000000
     14246      1954  TIP3      H2            -21.5858982175        5.1635509465       49.8525154024  TIP3      1890            0.0000000000
     14247      1955  TIP3      OH2            -6.6050096565        5.1870080716       55.1656428046  TIP3      1891            0.0000000000
     14248      1955  TIP3      H1             -5.9993686264        4.4211894453       55.2729276014  TIP3      1891            0.0000000000
     14249      1955  TIP3      H2             -5.9977719848        5.9545355729       55.1524546627  TIP3      1891            0.0000000000
     14250      1956  TIP3      OH2            -5.1163351282        3.0462388810       55.8017277993  TIP3      1892            0.0000000000
     14251      1956  TIP3      H1             -6.0081761912        2.6620412207       55.6588904190  TIP3      1892            0.0000000000
     14252      1956  TIP3      H2             -4.5557412077        2.2503356404       55.7354525131  TIP3      1892            0.0000000000
     14253      1957  TIP3      OH2            -7.3710971837       -0.7202890391       38.9062352622  TIP3      1893            0.0000000000
     14254      1957  TIP3      H1             -6.7982478783       -1.1713627701       39.5540084558  TIP3      1893            0.0000000000
     14255      1957  TIP3      H2             -8.2433497717       -1.1183056624       39.0497388984  TIP3      1893            0.0000000000
     14256      1958  TIP3      OH2            -7.8676733567        0.8115125468       43.8478194821  TIP3      1894            0.0000000000
     14257      1958  TIP3      H1             -7.5513739240       -0.1057704060       44.0205824694  TIP3      1894            0.0000000000
     14258      1958  TIP3      H2             -7.0323702174        1.2133848450       43.5715296066  TIP3      1894            0.0000000000
     14259      1959  TIP3      OH2            -7.1760520920        1.3555377014       49.3680501094  TIP3      1895            0.0000000000
     14260      1959  TIP3      H1             -6.2134909430        1.5735380792       49.3506780415  TIP3      1895            0.0000000000
     14261      1959  TIP3      H2             -7.3508014982        1.4884320297       50.3117194975  TIP3      1895            0.0000000000
     14262      1960  TIP3      OH2            -7.1067322633        2.0667931821       52.1351545694  TIP3      1896            0.0000000000
     14263      1960  TIP3      H1             -7.9978171377        2.3508256529       52.4338717475  TIP3      1896            0.0000000000
     14264      1960  TIP3      H2             -6.6715650952        2.9242670492       51.9184650040  TIP3      1896            0.0000000000
     14265      1961  TIP3      OH2           -22.3777419376        0.3411212468       54.9960687936  TIP3      1897            0.0000000000
     14266      1961  TIP3      H1            -21.6901008539        0.4905551569       55.6742239543  TIP3      1897            0.0000000000
     14267      1961  TIP3      H2            -23.0535362200        0.0054637960       55.5972809655  TIP3      1897            0.0000000000
     14268      1962  TIP3      OH2            -4.8118554347       -3.8294547594       57.4617571758  TIP3      1898            0.0000000000
     14269      1962  TIP3      H1             -4.4717131450       -4.5075894972       56.8499046297  TIP3      1898            0.0000000000
     14270      1962  TIP3      H2             -4.7552580347       -3.0359659433       56.8941769917  TIP3      1898            0.0000000000
     14271      1963  TIP3      OH2            -7.1405248899       -1.8959530556       43.9460495595  TIP3      1899            0.0000000000
     14272      1963  TIP3      H1             -6.9029787067       -2.3074920378       44.8097570450  TIP3      1899            0.0000000000
     14273      1963  TIP3      H2             -7.7230174630       -2.5628926077       43.5294656693  TIP3      1899            0.0000000000
     14274      1964  TIP3      OH2           -21.7275027299       -1.0880563568       48.7362918082  TIP3      1900            0.0000000000
     14275      1964  TIP3      H1            -21.2276739138       -1.9263860680       48.8327883053  TIP3      1900            0.0000000000
     14276      1964  TIP3      H2            -21.0611074246       -0.4200398581       48.9404240978  TIP3      1900            0.0000000000
     14277      1965  TIP3      OH2           -23.3969778593        2.1069968661       49.3524117940  TIP3      1901            0.0000000000
     14278      1965  TIP3      H1            -22.7335678975        1.6764720466       48.7930110996  TIP3      1901            0.0000000000
     14279      1965  TIP3      H2            -22.8408408280        2.7840185347       49.7514684766  TIP3      1901            0.0000000000
     14280      1966  TIP3      OH2            -5.3349099364       -1.7496487460       55.8158554271  TIP3      1902            0.0000000000
     14281      1966  TIP3      H1             -6.2713374324       -1.4834515153       55.7628756240  TIP3      1902            0.0000000000
     14282      1966  TIP3      H2             -5.3120648186       -2.3189345140       55.0303892682  TIP3      1902            0.0000000000
     14283      1967  TIP3      OH2            -5.3358595931       -1.8725365521       40.5248891024  TIP3      1903            0.0000000000
     14284      1967  TIP3      H1             -4.9386954448       -2.5748266974       39.9627775596  TIP3      1903            0.0000000000
     14285      1967  TIP3      H2             -4.6217945482       -1.2181934391       40.5612421633  TIP3      1903            0.0000000000
     14286      1968  TIP3      OH2           -22.6440129078       -2.0153364959       43.8109281031  TIP3      1904            0.0000000000
     14287      1968  TIP3      H1            -23.5593650683       -1.7637993820       43.9797175563  TIP3      1904            0.0000000000
     14288      1968  TIP3      H2            -22.3666903600       -1.3603295439       43.1342889143  TIP3      1904            0.0000000000
     14289      1969  TIP3      OH2            -8.2780541539       13.1144837365       45.5892928903  TIP3      1905            0.0000000000
     14290      1969  TIP3      H1             -7.5894153500       12.8323482250       44.9600089048  TIP3      1905            0.0000000000
     14291      1969  TIP3      H2             -7.7772205170       13.6193943778       46.2482344327  TIP3      1905            0.0000000000
     14292      1970  TIP3      OH2            23.9250157174       -3.1208040885       51.8207823975  TIP3      1906            0.0000000000
     14293      1970  TIP3      H1             23.2727682139       -3.4309800088       52.4780183685  TIP3      1906            0.0000000000
     14294      1970  TIP3      H2             23.3893597869       -2.4861222298       51.3232123244  TIP3      1906            0.0000000000
     14295      1971  TIP3      OH2           -20.8419645591       10.0013769417       56.1567392997  TIP3      1907            0.0000000000
     14296      1971  TIP3      H1            -21.6600763256       10.1506828064       55.6763180247  TIP3      1907            0.0000000000
     14297      1971  TIP3      H2            -21.1202281525        9.8799484049       57.0688647712  TIP3      1907            0.0000000000
     14298      1972  TIP3      OH2           -17.9563642210       11.0321545769       52.3466634907  TIP3      1908            0.0000000000
     14299      1972  TIP3      H1            -18.2380793602       11.9354077549       52.1157678686  TIP3      1908            0.0000000000
     14300      1972  TIP3      H2            -17.0172264420       11.0954786641       52.0686942558  TIP3      1908            0.0000000000
     14301      1973  TIP3      OH2           -13.6071227764       12.4478605891       55.2445817825  TIP3      1909            0.0000000000
     14302      1973  TIP3      H1            -13.4913618032       12.0947686581       56.1555064801  TIP3      1909            0.0000000000
     14303      1973  TIP3      H2            -12.7009466172       12.7676507792       55.0286084587  TIP3      1909            0.0000000000
     14304      1974  TIP3      OH2           -11.3248918111       13.7181419273       54.5830644854  TIP3      1910            0.0000000000
     14305      1974  TIP3      H1            -10.5776118245       13.1590190132       54.3404192294  TIP3      1910            0.0000000000
     14306      1974  TIP3      H2            -10.9607092709       14.1724444428       55.3732930071  TIP3      1910            0.0000000000
     14307      1975  TIP3      OH2            -6.2831082542       -3.6723924969       53.7032323610  TIP3      1911            0.0000000000
     14308      1975  TIP3      H1             -7.1112582577       -3.3674247135       53.2908784577  TIP3      1911            0.0000000000
     14309      1975  TIP3      H2             -6.1359465941       -4.5110520220       53.2044575722  TIP3      1911            0.0000000000
     14310      1976  TIP3      OH2           -20.6073307086       14.1862007298       52.3258025033  TIP3      1912            0.0000000000
     14311      1976  TIP3      H1            -21.2773639546       14.7937377593       51.9362809751  TIP3      1912            0.0000000000
     14312      1976  TIP3      H2            -20.8650897700       14.1717703240       53.2559700937  TIP3      1912            0.0000000000
     14313      1977  TIP3      OH2           -18.0304210033       13.8586494739       51.4459894076  TIP3      1913            0.0000000000
     14314      1977  TIP3      H1            -18.9319382875       14.0153089520       51.8077291603  TIP3      1913            0.0000000000
     14315      1977  TIP3      H2            -18.0690558882       14.4241097755       50.6514874041  TIP3      1913            0.0000000000
     14316      1978  TIP3      OH2           -13.3262606159       13.7425127856       50.5759993590  TIP3      1914            0.0000000000
     14317      1978  TIP3      H1            -13.7938174403       14.3042615746       49.9420477747  TIP3      1914            0.0000000000
     14318      1978  TIP3      H2            -13.1969956758       14.3634356390       51.3288013672  TIP3      1914            0.0000000000
     14319      1979  TIP3      OH2           -11.0732001613       12.5063833524       51.6780698754  TIP3      1915            0.0000000000
     14320      1979  TIP3      H1            -11.8865374958       12.8279993178       51.2463921334  TIP3      1915            0.0000000000
     14321      1979  TIP3      H2            -10.5318671534       13.3053490756       51.5770086079  TIP3      1915            0.0000000000
     14322      1980  TIP3      OH2            -8.4968067907       14.0739094658       51.8192616609  TIP3      1916            0.0000000000
     14323      1980  TIP3      H1             -8.4787391224       15.0401033879       51.6089950823  TIP3      1916            0.0000000000
     14324      1980  TIP3      H2             -8.2448056019       13.7036923628       50.9481048497  TIP3      1916            0.0000000000
     14325      1981  TIP3      OH2           -21.0356628435       12.8800666877       49.2368784937  TIP3      1917            0.0000000000
     14326      1981  TIP3      H1            -21.0720888275       12.4669208581       50.1173090903  TIP3      1917            0.0000000000
     14327      1981  TIP3      H2            -20.2094122313       12.5157639569       48.8666686081  TIP3      1917            0.0000000000
     14328      1982  TIP3      OH2           -18.9782489523       11.6006589166       47.9373655449  TIP3      1918            0.0000000000
     14329      1982  TIP3      H1            -19.1098006151       10.6682219296       48.1944648767  TIP3      1918            0.0000000000
     14330      1982  TIP3      H2            -18.1278617334       11.7918011702       48.3824283769  TIP3      1918            0.0000000000
     14331      1983  TIP3      OH2           -16.3400405765       12.0949686027       48.8416616778  TIP3      1919            0.0000000000
     14332      1983  TIP3      H1            -16.2062274230       11.1648386921       48.5847606273  TIP3      1919            0.0000000000
     14333      1983  TIP3      H2            -16.3027298575       12.0451453166       49.8078718010  TIP3      1919            0.0000000000
     14334      1984  TIP3      OH2           -12.9098197751       -2.2550994900       47.9636121394  TIP3      1920            0.0000000000
     14335      1984  TIP3      H1            -13.5879884655       -2.8852527562       48.2598759219  TIP3      1920            0.0000000000
     14336      1984  TIP3      H2            -12.3618167039       -2.8035193751       47.3916607595  TIP3      1920            0.0000000000
     14337      1985  TIP3      OH2            -7.7563676589       -4.2277790640       47.9936502227  TIP3      1921            0.0000000000
     14338      1985  TIP3      H1             -7.1635489083       -3.6147833274       47.4915670774  TIP3      1921            0.0000000000
     14339      1985  TIP3      H2             -8.6475896430       -3.8604010119       47.7875860858  TIP3      1921            0.0000000000
     14340      1986  TIP3      OH2            -6.1135345570       -2.9321773473       46.2606073271  TIP3      1922            0.0000000000
     14341      1986  TIP3      H1             -5.4222350027       -3.5249110610       45.8770041691  TIP3      1922            0.0000000000
     14342      1986  TIP3      H2             -5.5794146101       -2.1157044371       46.4077512146  TIP3      1922            0.0000000000
     14343      1987  TIP3      OH2           -20.5008612223       -3.6746300433       45.8498847629  TIP3      1923            0.0000000000
     14344      1987  TIP3      H1            -21.2985806795       -3.7992393047       45.3028685762  TIP3      1923            0.0000000000
     14345      1987  TIP3      H2            -20.0442838833       -4.5335237241       45.7242584690  TIP3      1923            0.0000000000
     14346      1988  TIP3      OH2           -21.7447267298       -3.8658261337       41.5624051650  TIP3      1924            0.0000000000
     14347      1988  TIP3      H1            -21.4192541094       -3.0665380866       41.1615993223  TIP3      1924            0.0000000000
     14348      1988  TIP3      H2            -22.3605874278       -3.4282839644       42.1727038195  TIP3      1924            0.0000000000
     14349      1989  TIP3      OH2           -16.1030317405       -3.6967244028       45.6079758140  TIP3      1925            0.0000000000
     14350      1989  TIP3      H1            -15.1995701151       -3.3637775208       45.4863480836  TIP3      1925            0.0000000000
     14351      1989  TIP3      H2            -16.0929397369       -3.9265261314       46.5363625946  TIP3      1925            0.0000000000
     14352      1990  TIP3      OH2           -10.3175764649       -3.6899372852       47.2036808078  TIP3      1926            0.0000000000
     14353      1990  TIP3      H1            -10.4237288685       -3.5573193591       46.2534419965  TIP3      1926            0.0000000000
     14354      1990  TIP3      H2            -10.7238413118       -4.5780836588       47.3502693831  TIP3      1926            0.0000000000
     14355      1991  TIP3      OH2            -9.0931734190       -3.6646942638       42.8981247730  TIP3      1927            0.0000000000
     14356      1991  TIP3      H1             -9.8522674110       -3.0776500919       42.7641468881  TIP3      1927            0.0000000000
     14357      1991  TIP3      H2             -9.5209674477       -4.5102198564       43.1751621498  TIP3      1927            0.0000000000
     14358      1992  TIP3      OH2           -21.8200951058       12.1288210665       42.5890653348  TIP3      1928            0.0000000000
     14359      1992  TIP3      H1            -22.5072928403       12.0611541437       41.9085174169  TIP3      1928            0.0000000000
     14360      1992  TIP3      H2            -21.7976413663       13.0927573696       42.6871518959  TIP3      1928            0.0000000000
     14361      1993  TIP3      OH2           -19.7578981499       -1.3984405141       40.0786105676  TIP3      1929            0.0000000000
     14362      1993  TIP3      H1            -19.1011787826       -1.7611179336       39.4726889786  TIP3      1929            0.0000000000
     14363      1993  TIP3      H2            -19.1898135015       -1.3197744630       40.8780741889  TIP3      1929            0.0000000000
     14364      1994  TIP3      OH2           -14.9335976972       -1.7127747266       42.4525420991  TIP3      1930            0.0000000000
     14365      1994  TIP3      H1            -14.6555988043       -2.2666922244       43.2012323389  TIP3      1930            0.0000000000
     14366      1994  TIP3      H2            -14.8153999295       -0.8307423250       42.8682048121  TIP3      1930            0.0000000000
     14367      1995  TIP3      OH2           -12.9722720471       13.4183025362       40.8858201199  TIP3      1931            0.0000000000
     14368      1995  TIP3      H1            -12.0385329780       13.5835147578       40.6703354058  TIP3      1931            0.0000000000
     14369      1995  TIP3      H2            -13.1973551435       12.8544505719       40.1157430135  TIP3      1931            0.0000000000
     14370      1996  TIP3      OH2            -6.3165154662       12.8586631967       43.6432681722  TIP3      1932            0.0000000000
     14371      1996  TIP3      H1             -6.4908945799       12.0750538480       43.0701623064  TIP3      1932            0.0000000000
     14372      1996  TIP3      H2             -6.3806394370       13.5958352950       42.9994569923  TIP3      1932            0.0000000000
     14373      1997  TIP3      OH2           -20.6937118631       -3.0678054616       55.3191252917  TIP3      1933            0.0000000000
     14374      1997  TIP3      H1            -21.0912749280       -3.8732895619       55.6904320715  TIP3      1933            0.0000000000
     14375      1997  TIP3      H2            -19.7674533116       -3.1599941823       55.6550339223  TIP3      1933            0.0000000000
     14376      1998  TIP3      OH2           -18.6340615545       -3.7037172143       56.9293999707  TIP3      1934            0.0000000000
     14377      1998  TIP3      H1            -17.7507373084       -4.0536639541       56.7081580781  TIP3      1934            0.0000000000
     14378      1998  TIP3      H2            -19.0456742209       -4.5010547726       57.3081890205  TIP3      1934            0.0000000000
     14379      1999  TIP3      OH2           -20.0713353471       13.0417053383       39.4977610087  TIP3      1935            0.0000000000
     14380      1999  TIP3      H1            -20.3562604772       13.3219615344       40.3815188765  TIP3      1935            0.0000000000
     14381      1999  TIP3      H2            -19.2997188303       12.4788781996       39.6926649497  TIP3      1935            0.0000000000
     14382      2000  TIP3      OH2           -10.1818386797       -4.2341042604       57.1813924570  TIP3      1936            0.0000000000
     14383      2000  TIP3      H1            -10.2126675815       -4.9293527337       57.8632052964  TIP3      1936            0.0000000000
     14384      2000  TIP3      H2             -9.3715215663       -4.4894782074       56.7045778501  TIP3      1936            0.0000000000
     14385      2001  TIP3      OH2            -7.0425051520       11.6476611927       55.6726008295  TIP3      1937            0.0000000000
     14386      2001  TIP3      H1             -7.8385473623       11.5224300690       55.1113541412  TIP3      1937            0.0000000000
     14387      2001  TIP3      H2             -7.1646524666       12.5913901621       55.8958071256  TIP3      1937            0.0000000000
     14388      2002  TIP3      OH2             7.4277944391        5.5269068482       45.6272541860  TIP3      1938            0.0000000000
     14389      2002  TIP3      H1              7.3652569271        6.5048330149       45.6596475991  TIP3      1938            0.0000000000
     14390      2002  TIP3      H2              6.6705305824        5.2943447561       45.0637176323  TIP3      1938            0.0000000000
     14391      2003  TIP3      OH2             6.2694999259        4.7448937951       49.1491758541  TIP3      1939            0.0000000000
     14392      2003  TIP3      H1              6.2558246405        4.1257553993       49.8924591302  TIP3      1939            0.0000000000
     14393      2003  TIP3      H2              5.8700323720        4.2231301551       48.4319758189  TIP3      1939            0.0000000000
     14394      2004  TIP3      OH2            -1.4027077088        4.4553881487       50.7160478412  TIP3      1940            0.0000000000
     14395      2004  TIP3      H1             -1.3164971403        3.7557481411       51.3923762659  TIP3      1940            0.0000000000
     14396      2004  TIP3      H2             -0.6434521307        5.0153731531       50.9471976693  TIP3      1940            0.0000000000
     14397      2005  TIP3      OH2             9.9094392759        7.7176567655       47.4680666864  TIP3      1941            0.0000000000
     14398      2005  TIP3      H1              9.5273739301        6.9915207128       47.9690082107  TIP3      1941            0.0000000000
     14399      2005  TIP3      H2              9.9705729373        8.4154738319       48.1455439119  TIP3      1941            0.0000000000
     14400      2006  TIP3      OH2            -0.4769713092        8.9149873211       49.1672264141  TIP3      1942            0.0000000000
     14401      2006  TIP3      H1             -0.7708002623        8.0217177107       48.8955891272  TIP3      1942            0.0000000000
     14402      2006  TIP3      H2              0.4800816247        8.7425183085       49.2243425630  TIP3      1942            0.0000000000
     14403      2007  TIP3      OH2            -3.8455513014        2.4223769806       44.7156082352  TIP3      1943            0.0000000000
     14404      2007  TIP3      H1             -4.2748830009        3.2927909682       44.6445919135  TIP3      1943            0.0000000000
     14405      2007  TIP3      H2             -4.3950718438        1.8852069038       44.1322579000  TIP3      1943            0.0000000000
     14406      2008  TIP3      OH2            -3.0993382715        4.6777970107       46.8976948848  TIP3      1944            0.0000000000
     14407      2008  TIP3      H1             -2.8095913344        3.8370158575       47.3044503483  TIP3      1944            0.0000000000
     14408      2008  TIP3      H2             -2.4509462837        4.8002597144       46.1879504624  TIP3      1944            0.0000000000
     14409      2009  TIP3      OH2             7.0451040995       12.8858860459       47.6989825883  TIP3      1945            0.0000000000
     14410      2009  TIP3      H1              7.7069073347       12.2166873123       47.3977674551  TIP3      1945            0.0000000000
     14411      2009  TIP3      H2              6.8111429202       12.5054468844       48.5473366993  TIP3      1945            0.0000000000
     14412      2010  TIP3      OH2             4.6291047671        7.1473029175       49.6840796838  TIP3      1946            0.0000000000
     14413      2010  TIP3      H1              4.9535540218        6.5434628882       48.9976611456  TIP3      1946            0.0000000000
     14414      2010  TIP3      H2              5.4636991735        7.3199846252       50.1593369039  TIP3      1946            0.0000000000
     14415      2011  TIP3      OH2            13.2415109045       -1.2198171921       50.3822512034  TIP3      1947            0.0000000000
     14416      2011  TIP3      H1             13.3759852682       -0.5658999211       51.1048964697  TIP3      1947            0.0000000000
     14417      2011  TIP3      H2             13.7851371744       -0.7908320648       49.6996026644  TIP3      1947            0.0000000000
     14418      2012  TIP3      OH2             7.7979125076        1.6338935496       49.9831304712  TIP3      1948            0.0000000000
     14419      2012  TIP3      H1              7.9745852126        0.6760955589       50.0011126097  TIP3      1948            0.0000000000
     14420      2012  TIP3      H2              7.6956432653        1.7610975714       49.0204971926  TIP3      1948            0.0000000000
     14421      2013  TIP3      OH2             0.8939329671       -0.2800201385       47.1579068618  TIP3      1949            0.0000000000
     14422      2013  TIP3      H1              1.0340472547        0.5440166844       46.6481413817  TIP3      1949            0.0000000000
     14423      2013  TIP3      H2              0.5164867672       -0.8571562297       46.4607773942  TIP3      1949            0.0000000000
     14424      2014  TIP3      OH2             8.6358854311       -0.2162514823       45.5454625286  TIP3      1950            0.0000000000
     14425      2014  TIP3      H1              9.2732886193       -0.5225708052       46.2287112755  TIP3      1950            0.0000000000
     14426      2014  TIP3      H2              9.2040521546        0.3938548096       45.0531833423  TIP3      1950            0.0000000000
     14427      2015  TIP3      OH2            -2.4819231203        2.1464712876       47.8905333461  TIP3      1951            0.0000000000
     14428      2015  TIP3      H1             -1.8167024880        1.6175063396       48.3681549641  TIP3      1951            0.0000000000
     14429      2015  TIP3      H2             -2.3458860050        1.8182489848       46.9871156027  TIP3      1951            0.0000000000
     14430      2016  TIP3      OH2             2.6680223992        3.6935827227       47.2605332731  TIP3      1952            0.0000000000
     14431      2016  TIP3      H1              3.3676765635        3.1126289309       47.6095126218  TIP3      1952            0.0000000000
     14432      2016  TIP3      H2              2.1825898581        3.0564054562       46.7029686991  TIP3      1952            0.0000000000
     14433      2017  TIP3      OH2            13.6331722591        0.1888873942       52.6513504740  TIP3      1953            0.0000000000
     14434      2017  TIP3      H1             13.0833219199        0.9885219746       52.4848750048  TIP3      1953            0.0000000000
     14435      2017  TIP3      H2             13.6988578141        0.2165942220       53.6152193581  TIP3      1953            0.0000000000
     14436      2018  TIP3      OH2            -0.1571545042       -1.3782332404       51.1999594058  TIP3      1954            0.0000000000
     14437      2018  TIP3      H1             -0.4490208573       -0.7967372465       50.4629122937  TIP3      1954            0.0000000000
     14438      2018  TIP3      H2             -0.8227029936       -1.1474172658       51.8886494451  TIP3      1954            0.0000000000
     14439      2019  TIP3      OH2             7.0813235972        8.0916366658       44.7573583608  TIP3      1955            0.0000000000
     14440      2019  TIP3      H1              6.8642898165        7.8451301445       43.8450351158  TIP3      1955            0.0000000000
     14441      2019  TIP3      H2              6.7932174380        9.0302976773       44.8064064053  TIP3      1955            0.0000000000
     14442      2020  TIP3      OH2             2.3215261727        6.2663336081       51.4178400182  TIP3      1956            0.0000000000
     14443      2020  TIP3      H1              1.6367426840        6.9153809270       51.6831350609  TIP3      1956            0.0000000000
     14444      2020  TIP3      H2              3.0347982286        6.8583441502       51.1252891245  TIP3      1956            0.0000000000
     14445      2021  TIP3      OH2            10.4833854113       -0.8275464785       47.5177646020  TIP3      1957            0.0000000000
     14446      2021  TIP3      H1             10.2247614146       -1.5940468674       48.0342699656  TIP3      1957            0.0000000000
     14447      2021  TIP3      H2             11.1550881311       -0.4178813847       48.0900677903  TIP3      1957            0.0000000000
     14448      2022  TIP3      OH2            -0.5759144244        0.4631161541       49.2680535274  TIP3      1958            0.0000000000
     14449      2022  TIP3      H1              0.0366904967        1.1743049218       49.5612313051  TIP3      1958            0.0000000000
     14450      2022  TIP3      H2             -0.0834074195        0.0842216657       48.4956302087  TIP3      1958            0.0000000000
     14451      2023  TIP3      OH2             0.7941506174        8.2917153444       52.2545145012  TIP3      1959            0.0000000000
     14452      2023  TIP3      H1              0.7318487969        9.2079705153       51.9300421661  TIP3      1959            0.0000000000
     14453      2023  TIP3      H2             -0.0877560582        8.1956388269       52.6957878842  TIP3      1959            0.0000000000
     14454      2024  TIP3      OH2            -3.1352244409        7.8528128929       43.0292294531  TIP3      1960            0.0000000000
     14455      2024  TIP3      H1             -3.3747517062        8.2473461354       42.1713066774  TIP3      1960            0.0000000000
     14456      2024  TIP3      H2             -3.0436203229        8.6489663557       43.5892129245  TIP3      1960            0.0000000000
     14457      2025  TIP3      OH2            10.4591893579        9.5645578915       49.8165235678  TIP3      1961            0.0000000000
     14458      2025  TIP3      H1              9.4904698404        9.6855387833       49.9366153892  TIP3      1961            0.0000000000
     14459      2025  TIP3      H2             10.7278035323       10.4743057430       49.5907145642  TIP3      1961            0.0000000000
     14460      2026  TIP3      OH2            10.8167341783       -2.1837719198       51.2052502538  TIP3      1962            0.0000000000
     14461      2026  TIP3      H1             10.0774947472       -1.5675362814       51.1025301561  TIP3      1962            0.0000000000
     14462      2026  TIP3      H2             11.5014894948       -1.7209264288       50.6746714746  TIP3      1962            0.0000000000
     14463      2027  TIP3      OH2             3.7017946503       -4.0206511503       48.6369680560  TIP3      1963            0.0000000000
     14464      2027  TIP3      H1              3.5612603486       -4.9895432420       48.5957148966  TIP3      1963            0.0000000000
     14465      2027  TIP3      H2              2.8374915288       -3.7125341202       48.9889663165  TIP3      1963            0.0000000000
     14466      2028  TIP3      OH2             8.7312655050       11.3492765385       46.3917185519  TIP3      1964            0.0000000000
     14467      2028  TIP3      H1              9.1372241331       10.6162443560       45.8814394741  TIP3      1964            0.0000000000
     14468      2028  TIP3      H2              9.2230020606       12.1177876270       46.0242890659  TIP3      1964            0.0000000000
     14469      2029  TIP3      OH2             9.9572369614        9.2667789438       44.9289786140  TIP3      1965            0.0000000000
     14470      2029  TIP3      H1              9.6427772980        8.5824954186       44.3168577391  TIP3      1965            0.0000000000
     14471      2029  TIP3      H2              9.9808709497        8.7670001078       45.7644194476  TIP3      1965            0.0000000000
     14472      2030  TIP3      OH2            11.5308360176        7.8852326986       53.4163182490  TIP3      1966            0.0000000000
     14473      2030  TIP3      H1             11.7000396982        7.1989221641       52.7315997315  TIP3      1966            0.0000000000
     14474      2030  TIP3      H2             11.7679782354        8.7040514912       52.9410371790  TIP3      1966            0.0000000000
     14475      2031  TIP3      OH2             6.0385006845        4.7297046328       43.1518219895  TIP3      1967            0.0000000000
     14476      2031  TIP3      H1              5.3770799550        5.3497615975       42.7941532085  TIP3      1967            0.0000000000
     14477      2031  TIP3      H2              6.7737305404        4.8511236538       42.5254842667  TIP3      1967            0.0000000000
     14478      2032  TIP3      OH2             6.1551933326        3.3482420986       40.1835466782  TIP3      1968            0.0000000000
     14479      2032  TIP3      H1              6.8817615625        3.3654343250       40.8311403961  TIP3      1968            0.0000000000
     14480      2032  TIP3      H2              6.4543448821        2.5977728374       39.6538821953  TIP3      1968            0.0000000000
     14481      2033  TIP3      OH2            13.4496687603        4.1949936418       51.4294040494  TIP3      1969            0.0000000000
     14482      2033  TIP3      H1             12.8094277754        4.9326367803       51.4676062462  TIP3      1969            0.0000000000
     14483      2033  TIP3      H2             13.9743388622        4.4432532638       50.6438836151  TIP3      1969            0.0000000000
     14484      2034  TIP3      OH2             9.5387346767        4.9542941957       44.1175919098  TIP3      1970            0.0000000000
     14485      2034  TIP3      H1              8.7853430699        5.1973953314       44.7037216769  TIP3      1970            0.0000000000
     14486      2034  TIP3      H2             10.0150550059        4.2921757959       44.6498514301  TIP3      1970            0.0000000000
     14487      2035  TIP3      OH2             9.4471492806        3.1268812621       53.2447427243  TIP3      1971            0.0000000000
     14488      2035  TIP3      H1              9.4343191690        3.9598367197       53.7428689910  TIP3      1971            0.0000000000
     14489      2035  TIP3      H2              8.8256410922        3.3962923982       52.5386667133  TIP3      1971            0.0000000000
     14490      2036  TIP3      OH2             1.1156870724        5.6098704987       46.0229248419  TIP3      1972            0.0000000000
     14491      2036  TIP3      H1              0.8083047727        5.2223399176       45.1671718022  TIP3      1972            0.0000000000
     14492      2036  TIP3      H2              1.7386854750        4.9237065277       46.3549748623  TIP3      1972            0.0000000000
     14493      2037  TIP3      OH2             2.4260530752        8.9716058876       48.6944355533  TIP3      1973            0.0000000000
     14494      2037  TIP3      H1              2.4493361442        8.4885399805       47.8566370769  TIP3      1973            0.0000000000
     14495      2037  TIP3      H2              3.2227806797        8.6358538557       49.1463620971  TIP3      1973            0.0000000000
     14496      2038  TIP3      OH2             1.4278201600        4.3629922718       49.7010923157  TIP3      1974            0.0000000000
     14497      2038  TIP3      H1              1.9562841608        4.4398595601       48.8816856296  TIP3      1974            0.0000000000
     14498      2038  TIP3      H2              1.8502781716        5.0323201807       50.2870512201  TIP3      1974            0.0000000000
     14499      2039  TIP3      OH2             7.8900704080        9.9570927070       50.4030891499  TIP3      1975            0.0000000000
     14500      2039  TIP3      H1              7.6001280017       10.5935562950       51.0690649021  TIP3      1975            0.0000000000
     14501      2039  TIP3      H2              7.6366744938        9.1006443554       50.8155429259  TIP3      1975            0.0000000000
     14502      2040  TIP3      OH2             2.4025531037        8.8067273918       54.3848241764  TIP3      1976            0.0000000000
     14503      2040  TIP3      H1              1.9472076828        9.5163899343       54.8845502238  TIP3      1976            0.0000000000
     14504      2040  TIP3      H2              1.7505978908        8.5887777142       53.6773534362  TIP3      1976            0.0000000000
     14505      2041  TIP3      OH2             8.4083138570        4.1952437124       41.7448933564  TIP3      1977            0.0000000000
     14506      2041  TIP3      H1              8.9515974753        4.3606084555       42.5517739916  TIP3      1977            0.0000000000
     14507      2041  TIP3      H2              8.8850179738        4.6735488090       41.0212907820  TIP3      1977            0.0000000000
     14508      2042  TIP3      OH2            -0.6362111593        4.9576039840       53.4882801301  TIP3      1978            0.0000000000
     14509      2042  TIP3      H1             -0.5682798112        5.6140555361       54.2051232122  TIP3      1978            0.0000000000
     14510      2042  TIP3      H2             -1.5936806274        5.0076072691       53.3369935683  TIP3      1978            0.0000000000
     14511      2043  TIP3      OH2             6.1043268163       10.8923840684       45.2297156431  TIP3      1979            0.0000000000
     14512      2043  TIP3      H1              6.5167439492       11.1977635233       46.0462339055  TIP3      1979            0.0000000000
     14513      2043  TIP3      H2              5.5541768002       11.6442698226       44.9769307466  TIP3      1979            0.0000000000
     14514      2044  TIP3      OH2             0.6627895963       10.8134647214       55.1161915909  TIP3      1980            0.0000000000
     14515      2044  TIP3      H1              0.5702038398       10.7437198726       54.1478712014  TIP3      1980            0.0000000000
     14516      2044  TIP3      H2             -0.2583207429       10.6691415829       55.4070041797  TIP3      1980            0.0000000000
     14517      2045  TIP3      OH2            12.1362497331       -4.0984667523       41.7085540860  TIP3      1981            0.0000000000
     14518      2045  TIP3      H1             11.1782005490       -4.0073712130       41.9104178355  TIP3      1981            0.0000000000
     14519      2045  TIP3      H2             12.3225894825       -3.2634268847       41.2267788986  TIP3      1981            0.0000000000
     14520      2046  TIP3      OH2             0.0589931039        4.6115779969       43.6738468865  TIP3      1982            0.0000000000
     14521      2046  TIP3      H1             -0.2092342673        5.3990169252       43.1523203134  TIP3      1982            0.0000000000
     14522      2046  TIP3      H2             -0.5676143238        3.9440761001       43.3837746751  TIP3      1982            0.0000000000
     14523      2047  TIP3      OH2            13.2324673812       10.2499399158       40.0264280887  TIP3      1983            0.0000000000
     14524      2047  TIP3      H1             13.4254532370       11.1879972792       40.1985037361  TIP3      1983            0.0000000000
     14525      2047  TIP3      H2             14.1433225411        9.9027731429       40.0577791996  TIP3      1983            0.0000000000
     14526      2048  TIP3      OH2            -3.8283073309        7.0726839139       52.5657331159  TIP3      1984            0.0000000000
     14527      2048  TIP3      H1             -4.2654245907        6.9892970350       51.6997433628  TIP3      1984            0.0000000000
     14528      2048  TIP3      H2             -3.7142901634        6.1252882417       52.7766693708  TIP3      1984            0.0000000000
     14529      2049  TIP3      OH2            -4.0750112246        9.8064791607       49.3196791073  TIP3      1985            0.0000000000
     14530      2049  TIP3      H1             -3.1178245020        9.6869577493       49.2973840707  TIP3      1985            0.0000000000
     14531      2049  TIP3      H2             -4.1455780470       10.6371052918       49.8052021809  TIP3      1985            0.0000000000
     14532      2050  TIP3      OH2            14.1868893002       10.5290106522       55.0566735361  TIP3      1986            0.0000000000
     14533      2050  TIP3      H1             14.0669124731        9.5726060667       55.0024148202  TIP3      1986            0.0000000000
     14534      2050  TIP3      H2             13.2932934735       10.7761656852       55.3914301479  TIP3      1986            0.0000000000
     14535      2051  TIP3      OH2             5.1279986019       10.0434908795       53.8711314859  TIP3      1987            0.0000000000
     14536      2051  TIP3      H1              5.1760362190       10.8877098433       54.3788798024  TIP3      1987            0.0000000000
     14537      2051  TIP3      H2              4.2578114401        9.6738013861       54.1156486493  TIP3      1987            0.0000000000
     14538      2052  TIP3      OH2             5.6007650946       13.7848819490       43.6343656144  TIP3      1988            0.0000000000
     14539      2052  TIP3      H1              5.4669759845       13.7294157449       42.6714844759  TIP3      1988            0.0000000000
     14540      2052  TIP3      H2              5.5845778738       14.7423011649       43.8159209504  TIP3      1988            0.0000000000
     14541      2053  TIP3      OH2            -0.7810364686       12.6756533183       45.4867135524  TIP3      1989            0.0000000000
     14542      2053  TIP3      H1             -0.6254641827       12.2617451758       46.3671048838  TIP3      1989            0.0000000000
     14543      2053  TIP3      H2             -1.6282393048       12.2586595875       45.2508194710  TIP3      1989            0.0000000000
     14544      2054  TIP3      OH2             8.6463803389       13.0197648240       40.6260085063  TIP3      1990            0.0000000000
     14545      2054  TIP3      H1              9.1194260387       12.2630512880       40.2014192553  TIP3      1990            0.0000000000
     14546      2054  TIP3      H2              8.6827346326       12.7665555685       41.5728338621  TIP3      1990            0.0000000000
     14547      2055  TIP3      OH2             8.3393501107       12.9523124545       43.4154028523  TIP3      1991            0.0000000000
     14548      2055  TIP3      H1              7.3742497114       13.0284211089       43.5573224275  TIP3      1991            0.0000000000
     14549      2055  TIP3      H2              8.5446217199       12.1952909756       43.9842303519  TIP3      1991            0.0000000000
     14550      2056  TIP3      OH2            11.3066247686        2.0039141050       55.4753308404  TIP3      1992            0.0000000000
     14551      2056  TIP3      H1             10.8154671668        2.4429596278       54.7610238394  TIP3      1992            0.0000000000
     14552      2056  TIP3      H2             11.2804871265        1.0797763593       55.1909473169  TIP3      1992            0.0000000000
     14553      2057  TIP3      OH2            -1.5194850703        8.3795874160       53.4816046197  TIP3      1993            0.0000000000
     14554      2057  TIP3      H1             -1.3144069080        8.0340612013       54.3764947439  TIP3      1993            0.0000000000
     14555      2057  TIP3      H2             -2.3967460429        7.9963837837       53.2725736822  TIP3      1993            0.0000000000
     14556      2058  TIP3      OH2             1.1616953531       -3.1087845109       49.3956349672  TIP3      1994            0.0000000000
     14557      2058  TIP3      H1              0.2566832199       -3.2698110327       49.0520621325  TIP3      1994            0.0000000000
     14558      2058  TIP3      H2              0.9983377563       -2.3125439942       49.9271898129  TIP3      1994            0.0000000000
     14559      2059  TIP3      OH2             5.8096535753       -3.4976596008       52.7604476823  TIP3      1995            0.0000000000
     14560      2059  TIP3      H1              6.1931959464       -3.9087020978       53.5597468633  TIP3      1995            0.0000000000
     14561      2059  TIP3      H2              4.8353989864       -3.5738796727       52.9186370781  TIP3      1995            0.0000000000
     14562      2060  TIP3      OH2             9.0776788723        0.3810733697       53.6907167754  TIP3      1996            0.0000000000
     14563      2060  TIP3      H1              8.4976910969        0.1553741648       54.4575131869  TIP3      1996            0.0000000000
     14564      2060  TIP3      H2              8.9027433706        1.3126120244       53.4740069539  TIP3      1996            0.0000000000
     14565      2061  TIP3      OH2             9.8441087532        5.2380053615       39.6595764800  TIP3      1997            0.0000000000
     14566      2061  TIP3      H1              9.7825658048        5.0112234331       38.7028453313  TIP3      1997            0.0000000000
     14567      2061  TIP3      H2             10.7201524539        5.6523216243       39.6523374480  TIP3      1997            0.0000000000
     14568      2062  TIP3      OH2             5.3813266677       -0.8447919784       40.0881533053  TIP3      1998            0.0000000000
     14569      2062  TIP3      H1              5.0960573346       -0.9430808920       41.0117571307  TIP3      1998            0.0000000000
     14570      2062  TIP3      H2              5.1200173008       -1.7326864782       39.7719185762  TIP3      1998            0.0000000000
     14571      2063  TIP3      OH2             1.2578007641        1.8610046662       50.7256910749  TIP3      1999            0.0000000000
     14572      2063  TIP3      H1              0.5054476476        1.8662440401       51.3485219334  TIP3      1999            0.0000000000
     14573      2063  TIP3      H2              1.2025410578        2.7511863283       50.3129165782  TIP3      1999            0.0000000000
     14574      2064  TIP3      OH2             1.2213877381        1.9130950267       45.5534987202  TIP3      2000            0.0000000000
     14575      2064  TIP3      H1              0.2724531521        1.7070164729       45.4303999769  TIP3      2000            0.0000000000
     14576      2064  TIP3      H2              1.5761495445        1.6624085195       44.6765209762  TIP3      2000            0.0000000000
     14577      2065  TIP3      OH2             6.7424713902        2.4699238864       44.3270232202  TIP3      2001            0.0000000000
     14578      2065  TIP3      H1              6.3553574593        3.2872245796       43.9359046960  TIP3      2001            0.0000000000
     14579      2065  TIP3      H2              7.4153056740        2.2661476222       43.6536385417  TIP3      2001            0.0000000000
     14580      2066  TIP3      OH2             5.7654945604        2.6776731093       55.7361412946  TIP3      2002            0.0000000000
     14581      2066  TIP3      H1              5.2665570997        1.8818963116       56.0460103457  TIP3      2002            0.0000000000
     14582      2066  TIP3      H2              6.6071117043        2.5831927431       56.2126206339  TIP3      2002            0.0000000000
     14583      2067  TIP3      OH2             7.7863275869        1.9708269652       47.1829945330  TIP3      2003            0.0000000000
     14584      2067  TIP3      H1              7.4717449184        2.5337306304       46.4536349703  TIP3      2003            0.0000000000
     14585      2067  TIP3      H2              7.8502024546        1.1196865479       46.7148603070  TIP3      2003            0.0000000000
     14586      2068  TIP3      OH2            -1.1429335727        2.0562188217       52.3250568474  TIP3      2004            0.0000000000
     14587      2068  TIP3      H1             -1.0006374058        2.4715040027       53.1929248480  TIP3      2004            0.0000000000
     14588      2068  TIP3      H2             -1.5613635373        1.2172157486       52.5770874745  TIP3      2004            0.0000000000
     14589      2069  TIP3      OH2             2.2182439958       -0.5292199780       39.2042174467  TIP3      2005            0.0000000000
     14590      2069  TIP3      H1              1.7512180970       -0.9323803202       39.9676105143  TIP3      2005            0.0000000000
     14591      2069  TIP3      H2              1.5167181198       -0.0625460887       38.7299412059  TIP3      2005            0.0000000000
     14592      2070  TIP3      OH2            -4.4594801980       -0.8394395496       46.3800762082  TIP3      2006            0.0000000000
     14593      2070  TIP3      H1             -3.7640214250       -0.8793926536       47.0710859201  TIP3      2006            0.0000000000
     14594      2070  TIP3      H2             -4.0172039067       -1.1764292355       45.5790878721  TIP3      2006            0.0000000000
     14595      2071  TIP3      OH2            -3.2234678530       -0.1075724041       41.6868534983  TIP3      2007            0.0000000000
     14596      2071  TIP3      H1             -2.6730589023        0.4749087768       41.1268647714  TIP3      2007            0.0000000000
     14597      2071  TIP3      H2             -3.8901030765        0.5411538774       41.9945847499  TIP3      2007            0.0000000000
     14598      2072  TIP3      OH2             6.9346230872        3.5271161108       51.6791811265  TIP3      2008            0.0000000000
     14599      2072  TIP3      H1              7.3405372938        2.8300876309       51.1175152434  TIP3      2008            0.0000000000
     14600      2072  TIP3      H2              6.4644492573        3.0060603119       52.3530224061  TIP3      2008            0.0000000000
     14601      2073  TIP3      OH2             3.7776955244       -0.4558928522       46.5596492159  TIP3      2009            0.0000000000
     14602      2073  TIP3      H1              2.8408697356       -0.4905462529       46.8318517652  TIP3      2009            0.0000000000
     14603      2073  TIP3      H2              4.2454203032       -0.6991232862       47.3742498135  TIP3      2009            0.0000000000
     14604      2074  TIP3      OH2            -1.4281171063        1.0556430516       45.4309613290  TIP3      2010            0.0000000000
     14605      2074  TIP3      H1             -2.2999314510        1.2325505067       45.0215154930  TIP3      2010            0.0000000000
     14606      2074  TIP3      H2             -1.1440753452        0.2208140108       45.0087022724  TIP3      2010            0.0000000000
     14607      2075  TIP3      OH2             2.2042114819        1.1309920451       43.0647544953  TIP3      2011            0.0000000000
     14608      2075  TIP3      H1              3.1664187624        1.2231153942       43.1915327357  TIP3      2011            0.0000000000
     14609      2075  TIP3      H2              1.9645656888        1.8022796169       42.3982779138  TIP3      2011            0.0000000000
     14610      2076  TIP3      OH2             8.1698853749       -1.2062852218       49.7716953916  TIP3      2012            0.0000000000
     14611      2076  TIP3      H1              7.5019012524       -1.2202487432       50.4917724808  TIP3      2012            0.0000000000
     14612      2076  TIP3      H2              7.6681352065       -1.5325317267       49.0103614658  TIP3      2012            0.0000000000
     14613      2077  TIP3      OH2             0.9345645897        2.2851936174       40.6337136152  TIP3      2013            0.0000000000
     14614      2077  TIP3      H1              0.3998080556        1.9010852684       39.9183071838  TIP3      2013            0.0000000000
     14615      2077  TIP3      H2              1.7485125246        2.5077134579       40.1540580502  TIP3      2013            0.0000000000
     14616      2078  TIP3      OH2            11.3558884645       14.3930429163       56.1264021594  TIP3      2014            0.0000000000
     14617      2078  TIP3      H1             11.6249092202       14.7575142215       55.2631105726  TIP3      2014            0.0000000000
     14618      2078  TIP3      H2             12.0992285834       14.6902300307       56.6747665109  TIP3      2014            0.0000000000
     14619      2079  TIP3      OH2            -0.9664165943        6.8605240052       55.7005540830  TIP3      2015            0.0000000000
     14620      2079  TIP3      H1             -0.2341819664        7.1027112685       56.2937156340  TIP3      2015            0.0000000000
     14621      2079  TIP3      H2             -1.7266334055        6.8930575951       56.3197048958  TIP3      2015            0.0000000000
     14622      2080  TIP3      OH2             5.0354167946        2.2762289082       48.4417445425  TIP3      2016            0.0000000000
     14623      2080  TIP3      H1              5.6488806482        1.7546129180       47.9120814948  TIP3      2016            0.0000000000
     14624      2080  TIP3      H2              4.8899042106        1.7149823254       49.2154863516  TIP3      2016            0.0000000000
     14625      2081  TIP3      OH2             0.0468359674       -1.5796885581       44.8798424426  TIP3      2017            0.0000000000
     14626      2081  TIP3      H1             -0.2733113459       -2.4988919614       44.9144032670  TIP3      2017            0.0000000000
     14627      2081  TIP3      H2              0.8447289334       -1.6806668122       44.3453102483  TIP3      2017            0.0000000000
     14628      2082  TIP3      OH2             3.6831777501        0.5876257851       50.8595532386  TIP3      2018            0.0000000000
     14629      2082  TIP3      H1              2.8649159165        1.1208657568       50.9317291754  TIP3      2018            0.0000000000
     14630      2082  TIP3      H2              4.2474024437        0.9610953762       51.5593139873  TIP3      2018            0.0000000000
     14631      2083  TIP3      OH2             4.2684550734        6.8017830683       42.5687155824  TIP3      2019            0.0000000000
     14632      2083  TIP3      H1              3.4626151330        6.3556932586       42.2207334161  TIP3      2019            0.0000000000
     14633      2083  TIP3      H2              4.0155078925        6.9717634661       43.4976518217  TIP3      2019            0.0000000000
     14634      2084  TIP3      OH2            11.4950329925        6.0490583662       51.3618177889  TIP3      2020            0.0000000000
     14635      2084  TIP3      H1             12.0283601385        6.5370063658       50.7053449500  TIP3      2020            0.0000000000
     14636      2084  TIP3      H2             10.6245883436        6.0470259669       50.9145883935  TIP3      2020            0.0000000000
     14637      2085  TIP3      OH2             8.0729389627       -0.3881799088       40.7571563146  TIP3      2021            0.0000000000
     14638      2085  TIP3      H1              7.1387170046       -0.1905009125       40.5732449781  TIP3      2021            0.0000000000
     14639      2085  TIP3      H2              8.4605817513        0.4631443387       41.0557837741  TIP3      2021            0.0000000000
     14640      2086  TIP3      OH2             5.7614370950        7.1218841163       53.8021117161  TIP3      2022            0.0000000000
     14641      2086  TIP3      H1              5.4138110924        6.6597134744       54.5724876679  TIP3      2022            0.0000000000
     14642      2086  TIP3      H2              5.4689075170        8.0279253724       53.9428538121  TIP3      2022            0.0000000000
     14643      2087  TIP3      OH2             8.8180576492        1.5848286988       42.3276594639  TIP3      2023            0.0000000000
     14644      2087  TIP3      H1              9.6841014299        1.4404952736       42.7647389076  TIP3      2023            0.0000000000
     14645      2087  TIP3      H2              8.9499391652        2.4059567336       41.8257569665  TIP3      2023            0.0000000000
     14646      2088  TIP3      OH2            -0.6102086796        6.2340739312       48.3530099001  TIP3      2024            0.0000000000
     14647      2088  TIP3      H1              0.0308448969        6.1260709235       47.6240904664  TIP3      2024            0.0000000000
     14648      2088  TIP3      H2             -0.5507388459        5.3873748019       48.8280899453  TIP3      2024            0.0000000000
     14649      2089  TIP3      OH2             6.3454539826        8.2754159238       41.5949945184  TIP3      2025            0.0000000000
     14650      2089  TIP3      H1              5.9999699214        9.1279690584       41.9355132258  TIP3      2025            0.0000000000
     14651      2089  TIP3      H2              5.6181562725        7.6572250616       41.8242510004  TIP3      2025            0.0000000000
     14652      2090  TIP3      OH2            -3.6287535035        4.6062091631       53.6170799657  TIP3      2026            0.0000000000
     14653      2090  TIP3      H1             -3.4859979161        4.1554879674       54.4695302763  TIP3      2026            0.0000000000
     14654      2090  TIP3      H2             -4.2564722086        4.0175221886       53.1577753792  TIP3      2026            0.0000000000
     14655      2091  TIP3      OH2             3.3896702245        4.1838319163       55.7720218612  TIP3      2027            0.0000000000
     14656      2091  TIP3      H1              3.0457589101        3.8250500141       54.9382882782  TIP3      2027            0.0000000000
     14657      2091  TIP3      H2              4.3004435657        3.8264166228       55.7683213768  TIP3      2027            0.0000000000
     14658      2092  TIP3      OH2             8.0970270212        9.5279978374       53.7758687534  TIP3      2028            0.0000000000
     14659      2092  TIP3      H1              7.1716985656        9.6880177768       53.5262547451  TIP3      2028            0.0000000000
     14660      2092  TIP3      H2              8.0434300268        9.8241332679       54.7059487746  TIP3      2028            0.0000000000
     14661      2093  TIP3      OH2            13.7511572977        1.6647898046       42.1199744893  TIP3      2029            0.0000000000
     14662      2093  TIP3      H1             13.1375397928        1.4343434722       41.3857109753  TIP3      2029            0.0000000000
     14663      2093  TIP3      H2             13.8103916376        2.6260359131       41.9381180664  TIP3      2029            0.0000000000
     14664      2094  TIP3      OH2            13.7234254575        7.5433212520       54.9190105798  TIP3      2030            0.0000000000
     14665      2094  TIP3      H1             12.8289056574        7.7780911706       54.5722362414  TIP3      2030            0.0000000000
     14666      2094  TIP3      H2             14.2591118810        7.4921899152       54.0969681519  TIP3      2030            0.0000000000
     14667      2095  TIP3      OH2            11.9639542567       10.5070957747       42.5053484111  TIP3      2031            0.0000000000
     14668      2095  TIP3      H1             11.6516902709        9.6681346341       42.8665829483  TIP3      2031            0.0000000000
     14669      2095  TIP3      H2             12.3574931661       10.2729840045       41.6491806965  TIP3      2031            0.0000000000
     14670      2096  TIP3      OH2             9.2490264380        5.3366893720       49.6380331795  TIP3      2032            0.0000000000
     14671      2096  TIP3      H1              8.3075688937        5.1447470981       49.4992222181  TIP3      2032            0.0000000000
     14672      2096  TIP3      H2              9.6782995375        4.5926335255       49.1751476437  TIP3      2032            0.0000000000
     14673      2097  TIP3      OH2             1.7642432778        9.6820919853       45.7541156818  TIP3      2033            0.0000000000
     14674      2097  TIP3      H1              2.2536827777       10.4956745762       45.5435637621  TIP3      2033            0.0000000000
     14675      2097  TIP3      H2              0.8888882929        9.8990964282       45.4063837856  TIP3      2033            0.0000000000
     14676      2098  TIP3      OH2            -2.4663301583        4.5018579441       40.3194617137  TIP3      2034            0.0000000000
     14677      2098  TIP3      H1             -1.9028713317        5.1750096471       40.7402505515  TIP3      2034            0.0000000000
     14678      2098  TIP3      H2             -3.3705859480        4.7991420533       40.5441212603  TIP3      2034            0.0000000000
     14679      2099  TIP3      OH2             3.1450446963        7.3485067472       45.2259070212  TIP3      2035            0.0000000000
     14680      2099  TIP3      H1              2.8080086987        8.2571722791       45.3495059764  TIP3      2035            0.0000000000
     14681      2099  TIP3      H2              2.4730795431        6.8239339889       45.7033480713  TIP3      2035            0.0000000000
     14682      2100  TIP3      OH2             3.6082513726       11.5330249105       51.7054500322  TIP3      2036            0.0000000000
     14683      2100  TIP3      H1              4.1046102389       12.3053254861       51.3938740058  TIP3      2036            0.0000000000
     14684      2100  TIP3      H2              4.2414605357       11.1628776355       52.3476048190  TIP3      2036            0.0000000000
     14685      2101  TIP3      OH2             1.8460234902       12.3139034440       44.7569825429  TIP3      2037            0.0000000000
     14686      2101  TIP3      H1              0.8865284877       12.4628020165       44.9224176161  TIP3      2037            0.0000000000
     14687      2101  TIP3      H2              2.2249923128       13.1481009310       45.0907380206  TIP3      2037            0.0000000000
     14688      2102  TIP3      OH2             7.0920226798        7.4871161132       51.2746594010  TIP3      2038            0.0000000000
     14689      2102  TIP3      H1              6.8248491884        7.3147695391       52.2029375812  TIP3      2038            0.0000000000
     14690      2102  TIP3      H2              7.7546234790        6.7954977271       51.1073956641  TIP3      2038            0.0000000000
     14691      2103  TIP3      OH2             9.5109182007        8.6370208063       40.3791243568  TIP3      2039            0.0000000000
     14692      2103  TIP3      H1              9.7974524087        8.1308301274       41.1656675218  TIP3      2039            0.0000000000
     14693      2103  TIP3      H2              8.5625123131        8.4204196116       40.4280683074  TIP3      2039            0.0000000000
     14694      2104  TIP3      OH2             9.9811712016       12.0908337462       53.7622744327  TIP3      2040            0.0000000000
     14695      2104  TIP3      H1              9.2643567197       11.6085538358       53.3094799931  TIP3      2040            0.0000000000
     14696      2104  TIP3      H2             10.1432074186       12.7908898707       53.0917421302  TIP3      2040            0.0000000000
     14697      2105  TIP3      OH2            13.9332160353       12.9523979755       40.6309759477  TIP3      2041            0.0000000000
     14698      2105  TIP3      H1             14.6136548722       13.6178152964       40.4106568014  TIP3      2041            0.0000000000
     14699      2105  TIP3      H2             13.2201168066       13.5590730424       40.9280886907  TIP3      2041            0.0000000000
     14700      2106  TIP3      OH2            -1.9710409112       -0.6498555506       53.1737318082  TIP3      2042            0.0000000000
     14701      2106  TIP3      H1             -2.8769471616       -0.2966053873       53.1577911593  TIP3      2042            0.0000000000
     14702      2106  TIP3      H2             -2.0830357736       -1.4959628529       53.6358588676  TIP3      2042            0.0000000000
     14703      2107  TIP3      OH2            10.2519674620        7.2390440711       42.6263279245  TIP3      2043            0.0000000000
     14704      2107  TIP3      H1             10.0117854097        6.4397130884       43.1440310281  TIP3      2043            0.0000000000
     14705      2107  TIP3      H2             11.2100671299        7.2584674165       42.7787931884  TIP3      2043            0.0000000000
     14706      2108  TIP3      OH2            -2.3704953510       11.1044319874       51.5811766087  TIP3      2044            0.0000000000
     14707      2108  TIP3      H1             -2.0190475187       10.2048410359       51.5935749100  TIP3      2044            0.0000000000
     14708      2108  TIP3      H2             -2.1086975410       11.4271337091       52.4497489093  TIP3      2044            0.0000000000
     14709      2109  TIP3      OH2             3.6358019576        9.6808588262       38.8948683313  TIP3      2045            0.0000000000
     14710      2109  TIP3      H1              3.6969210580        8.9289956421       38.2820720733  TIP3      2045            0.0000000000
     14711      2109  TIP3      H2              3.1354328517        9.2531165508       39.6237489466  TIP3      2045            0.0000000000
     14712      2110  TIP3      OH2             2.3527471621        9.1924687015       41.3466168200  TIP3      2046            0.0000000000
     14713      2110  TIP3      H1              2.6916479452        8.6757858863       42.0884684487  TIP3      2046            0.0000000000
     14714      2110  TIP3      H2              2.4816632204       10.1148843197       41.6681907269  TIP3      2046            0.0000000000
     14715      2111  TIP3      OH2            -1.0568932733        6.4389128074       41.8235771682  TIP3      2047            0.0000000000
     14716      2111  TIP3      H1             -1.7913389046        6.8458886385       42.3284379974  TIP3      2047            0.0000000000
     14717      2111  TIP3      H2             -0.5705967819        7.2157038821       41.4942172819  TIP3      2047            0.0000000000
     14718      2112  TIP3      OH2             6.7618765189       -0.8802595834       52.1754747122  TIP3      2048            0.0000000000
     14719      2112  TIP3      H1              7.4928078583       -0.8109824740       52.7982763699  TIP3      2048            0.0000000000
     14720      2112  TIP3      H2              6.3802238927       -1.7568934366       52.3863073576  TIP3      2048            0.0000000000
     14721      2113  TIP3      OH2             7.4774713481       -1.3318086995       43.2431587869  TIP3      2049            0.0000000000
     14722      2113  TIP3      H1              7.7096619874       -0.8933336795       42.4009926303  TIP3      2049            0.0000000000
     14723      2113  TIP3      H2              8.0680851113       -0.8757233349       43.8571302963  TIP3      2049            0.0000000000
     14724      2114  TIP3      OH2             5.1835678224       10.8461349026       42.0061767541  TIP3      2050            0.0000000000
     14725      2114  TIP3      H1              4.3640875620       11.3758594636       42.0985634505  TIP3      2050            0.0000000000
     14726      2114  TIP3      H2              5.7310090538       11.4228170943       41.4555055899  TIP3      2050            0.0000000000
     14727      2115  TIP3      OH2             4.7387277868        0.4180343084       44.0468283680  TIP3      2051            0.0000000000
     14728      2115  TIP3      H1              5.4918447394        1.0386507033       44.1047331433  TIP3      2051            0.0000000000
     14729      2115  TIP3      H2              4.4480277791        0.2982032226       44.9732769644  TIP3      2051            0.0000000000
     14730      2116  TIP3      OH2             5.3021178197        1.4761786367       53.2475899226  TIP3      2052            0.0000000000
     14731      2116  TIP3      H1              5.3695643971        2.0152698760       54.0605971680  TIP3      2052            0.0000000000
     14732      2116  TIP3      H2              5.9573966165        0.7738952189       53.3337095769  TIP3      2052            0.0000000000
     14733      2117  TIP3      OH2             5.5604113909       -2.5290875893       44.8806973656  TIP3      2053            0.0000000000
     14734      2117  TIP3      H1              5.2366674414       -1.8884254070       45.5344904043  TIP3      2053            0.0000000000
     14735      2117  TIP3      H2              6.2665305430       -1.9743455795       44.4604635452  TIP3      2053            0.0000000000
     14736      2118  TIP3      OH2             2.6198345245       11.8697811852       42.0617972318  TIP3      2054            0.0000000000
     14737      2118  TIP3      H1              2.6813099652       12.6768104207       41.4951321058  TIP3      2054            0.0000000000
     14738      2118  TIP3      H2              2.3106336453       12.2472670452       42.9170981540  TIP3      2054            0.0000000000
     14739      2119  TIP3      OH2             1.2279746768       -1.3918368481       41.6251279717  TIP3      2055            0.0000000000
     14740      2119  TIP3      H1              1.1790823095       -0.5029112099       42.0270970651  TIP3      2055            0.0000000000
     14741      2119  TIP3      H2              2.1357663149       -1.6483161229       41.8907677764  TIP3      2055            0.0000000000
     14742      2120  TIP3      OH2            11.4370575599       -0.6805846723       54.0756038175  TIP3      2056            0.0000000000
     14743      2120  TIP3      H1             10.5236242887       -0.3153258969       53.9615052990  TIP3      2056            0.0000000000
     14744      2120  TIP3      H2             11.7573477904       -0.6316355069       53.1619570375  TIP3      2056            0.0000000000
     14745      2121  TIP3      OH2            10.0806544293        3.1214400069       48.0622896495  TIP3      2057            0.0000000000
     14746      2121  TIP3      H1              9.2550549124        2.6622180223       47.8127386550  TIP3      2057            0.0000000000
     14747      2121  TIP3      H2             10.5776231755        2.4453511121       48.5749739125  TIP3      2057            0.0000000000
     14748      2122  TIP3      OH2            -0.5468321952        9.0475805436       40.6466208593  TIP3      2058            0.0000000000
     14749      2122  TIP3      H1              0.1466641156        9.6283709150       40.9977173600  TIP3      2058            0.0000000000
     14750      2122  TIP3      H2             -0.0207802620        8.5590649324       39.9824371812  TIP3      2058            0.0000000000
     14751      2123  TIP3      OH2            -2.2040163170        1.7253867129       39.8116024780  TIP3      2059            0.0000000000
     14752      2123  TIP3      H1             -2.1599369516        2.6758569840       40.0449588511  TIP3      2059            0.0000000000
     14753      2123  TIP3      H2             -3.1001955171        1.5925726329       39.4902553212  TIP3      2059            0.0000000000
     14754      2124  TIP3      OH2            11.1453486036       12.4002729315       49.7332630102  TIP3      2060            0.0000000000
     14755      2124  TIP3      H1             11.0698786622       13.0741382131       49.0287298722  TIP3      2060            0.0000000000
     14756      2124  TIP3      H2             12.1088557442       12.4350605082       49.9118385883  TIP3      2060            0.0000000000
     14757      2125  TIP3      OH2            -1.3806048896       -3.4987286892       48.5908944846  TIP3      2061            0.0000000000
     14758      2125  TIP3      H1             -1.5382941798       -3.4951660623       47.6222414105  TIP3      2061            0.0000000000
     14759      2125  TIP3      H2             -1.7678319343       -4.3688271742       48.8266493269  TIP3      2061            0.0000000000
     14760      2126  TIP3      OH2            -2.4296403743       10.4350368915       44.7341994391  TIP3      2062            0.0000000000
     14761      2126  TIP3      H1             -3.2939051087       10.8535812692       44.6461704628  TIP3      2062            0.0000000000
     14762      2126  TIP3      H2             -1.9767312094       10.8544684159       43.9893626956  TIP3      2062            0.0000000000
     14763      2127  TIP3      OH2            -3.2495642824       13.0811615416       55.9789416100  TIP3      2063            0.0000000000
     14764      2127  TIP3      H1             -2.6242705822       12.9097781229       56.7090360627  TIP3      2063            0.0000000000
     14765      2127  TIP3      H2             -3.6095768254       12.1930589262       55.8087936857  TIP3      2063            0.0000000000
     14766      2128  TIP3      OH2             1.4783315507       12.0009784459       57.5785979127  TIP3      2064            0.0000000000
     14767      2128  TIP3      H1              2.2280758538       11.4964173157       57.9236917784  TIP3      2064            0.0000000000
     14768      2128  TIP3      H2              1.4439957838       11.7096578826       56.6491319952  TIP3      2064            0.0000000000
     14769      2129  TIP3      OH2             5.6338685159       11.5257389794       39.0111019716  TIP3      2065            0.0000000000
     14770      2129  TIP3      H1              4.9206601776       10.8677710796       39.1843573320  TIP3      2065            0.0000000000
     14771      2129  TIP3      H2              6.3359179461       10.9150101152       38.7419857966  TIP3      2065            0.0000000000
     14772      2130  TIP3      OH2             7.9374540088       10.3958043102       56.3643684101  TIP3      2066            0.0000000000
     14773      2130  TIP3      H1              7.6286447671        9.5071549400       56.6449290288  TIP3      2066            0.0000000000
     14774      2130  TIP3      H2              8.7249223516       10.5123311076       56.9317506885  TIP3      2066            0.0000000000
     14775      2131  TIP3      OH2            10.1720160415       11.2504002386       39.1771812030  TIP3      2067            0.0000000000
     14776      2131  TIP3      H1             10.4521173640       10.4750466789       39.6955849768  TIP3      2067            0.0000000000
     14777      2131  TIP3      H2             10.9411262557       11.4301211583       38.6183659597  TIP3      2067            0.0000000000
     14778      2132  TIP3      OH2            -3.3470500782        6.8358636873       56.9954336105  TIP3      2068            0.0000000000
     14779      2132  TIP3      H1             -3.1708196084        5.9249494914       56.7001576313  TIP3      2068            0.0000000000
     14780      2132  TIP3      H2             -4.0585397422        7.0981037125       56.3877416235  TIP3      2068            0.0000000000
     14781      2133  TIP3      OH2             1.0451696669        7.2001019557       38.9643314451  TIP3      2069            0.0000000000
     14782      2133  TIP3      H1              1.1807747226        6.4543309007       39.5684981506  TIP3      2069            0.0000000000
     14783      2133  TIP3      H2              1.8153342197        7.0849548522       38.3744896860  TIP3      2069            0.0000000000
     14784      2134  TIP3      OH2             3.4003119050        6.8480905365       56.3608101427  TIP3      2070            0.0000000000
     14785      2134  TIP3      H1              3.0739999199        7.1831981723       55.5028793559  TIP3      2070            0.0000000000
     14786      2134  TIP3      H2              3.4456688426        5.8678174521       56.2377740990  TIP3      2070            0.0000000000
     14787      2135  TIP3      OH2             6.4898527733        8.3274935693       38.7739199723  TIP3      2071            0.0000000000
     14788      2135  TIP3      H1              6.2201432627        8.3737363628       39.7052808499  TIP3      2071            0.0000000000
     14789      2135  TIP3      H2              6.3180816386        7.3690369541       38.6060137029  TIP3      2071            0.0000000000
     14790      2136  TIP3      OH2             9.0839421970        6.6828212641       53.7698277082  TIP3      2072            0.0000000000
     14791      2136  TIP3      H1              9.8925743551        7.2417368305       53.7375018919  TIP3      2072            0.0000000000
     14792      2136  TIP3      H2              8.4091011048        7.3792275941       53.7865306975  TIP3      2072            0.0000000000
     14793      2137  TIP3      OH2            -2.3673820988        4.0765219035       56.3757694583  TIP3      2073            0.0000000000
     14794      2137  TIP3      H1             -1.9358279675        3.2185244874       56.3009553808  TIP3      2073            0.0000000000
     14795      2137  TIP3      H2             -2.5903682340        4.0994756995       57.3205627106  TIP3      2073            0.0000000000
     14796      2138  TIP3      OH2             2.2482852138        5.2223317300       41.4647022049  TIP3      2074            0.0000000000
     14797      2138  TIP3      H1              1.7178470937        4.6664084894       42.0541982483  TIP3      2074            0.0000000000
     14798      2138  TIP3      H2              2.5662740045        4.5690057180       40.8006847962  TIP3      2074            0.0000000000
     14799      2139  TIP3      OH2             1.5030895301        3.0047229151       53.6985415059  TIP3      2075            0.0000000000
     14800      2139  TIP3      H1              0.9168445470        3.7364999543       53.9455859343  TIP3      2075            0.0000000000
     14801      2139  TIP3      H2              1.9327696586        3.3832649238       52.9119196324  TIP3      2075            0.0000000000
     14802      2140  TIP3      OH2             3.3335302786        3.4537041246       39.6212146714  TIP3      2076            0.0000000000
     14803      2140  TIP3      H1              3.1948420478        3.3841758951       38.6544280792  TIP3      2076            0.0000000000
     14804      2140  TIP3      H2              4.3095348331        3.4724792129       39.7047125268  TIP3      2076            0.0000000000
     14805      2141  TIP3      OH2             6.6089077908        5.6075369507       57.0768111281  TIP3      2077            0.0000000000
     14806      2141  TIP3      H1              7.5540004595        5.5435416104       56.8947880116  TIP3      2077            0.0000000000
     14807      2141  TIP3      H2              6.4264619080        4.8234632626       57.6218267214  TIP3      2077            0.0000000000
     14808      2142  TIP3      OH2            12.6274685026        5.7803109494       39.0430651547  TIP3      2078            0.0000000000
     14809      2142  TIP3      H1             12.4543028828        5.4164274557       38.1592194304  TIP3      2078            0.0000000000
     14810      2142  TIP3      H2             12.7258551076        6.7448475884       38.8531812635  TIP3      2078            0.0000000000
     14811      2143  TIP3      OH2             1.9302659163        0.3950949348       54.7385560761  TIP3      2079            0.0000000000
     14812      2143  TIP3      H1              2.0481459054       -0.3031920336       54.0648407529  TIP3      2079            0.0000000000
     14813      2143  TIP3      H2              1.8724649844        1.2120890941       54.2043527879  TIP3      2079            0.0000000000
     14814      2144  TIP3      OH2             2.3267308873       -1.1866192662       52.3397519066  TIP3      2080            0.0000000000
     14815      2144  TIP3      H1              2.8305213685       -0.7458572918       51.6132842050  TIP3      2080            0.0000000000
     14816      2144  TIP3      H2              1.4337965330       -1.2862910682       51.9418277644  TIP3      2080            0.0000000000
     14817      2145  TIP3      OH2             3.8531063023        4.3029229256       52.5673919490  TIP3      2081            0.0000000000
     14818      2145  TIP3      H1              4.6166096157        4.1286066128       52.0085494723  TIP3      2081            0.0000000000
     14819      2145  TIP3      H2              3.4805859798        5.1234766970       52.2043026276  TIP3      2081            0.0000000000
     14820      2146  TIP3      OH2             8.2477566276        2.0030282102       57.5022077146  TIP3      2082            0.0000000000
     14821      2146  TIP3      H1              8.4966907548        1.0699784580       57.4284270452  TIP3      2082            0.0000000000
     14822      2146  TIP3      H2              9.1054600636        2.4579884647       57.5624566788  TIP3      2082            0.0000000000
     14823      2147  TIP3      OH2             9.6159553345        4.8232287078       55.7305765905  TIP3      2083            0.0000000000
     14824      2147  TIP3      H1              9.3515072803        5.5262112786       55.0972960809  TIP3      2083            0.0000000000
     14825      2147  TIP3      H2             10.5754529767        4.7863984908       55.5355544703  TIP3      2083            0.0000000000
     14826      2148  TIP3      OH2             0.3841042735        1.6462774504       56.6843039374  TIP3      2084            0.0000000000
     14827      2148  TIP3      H1             -0.3824210077        1.0603886890       56.5353863231  TIP3      2084            0.0000000000
     14828      2148  TIP3      H2              1.0292469657        1.2731276771       56.0522730711  TIP3      2084            0.0000000000
     14829      2149  TIP3      OH2             3.1189332500       -3.7891745060       52.6981045156  TIP3      2085            0.0000000000
     14830      2149  TIP3      H1              2.8886837322       -2.8362691977       52.6002010984  TIP3      2085            0.0000000000
     14831      2149  TIP3      H2              2.4051196420       -4.2161619358       52.1913310911  TIP3      2085            0.0000000000
     14832      2150  TIP3      OH2             4.3845748946        0.5426491799       56.3666382326  TIP3      2086            0.0000000000
     14833      2150  TIP3      H1              4.0454898492        0.2990465944       57.2509579806  TIP3      2086            0.0000000000
     14834      2150  TIP3      H2              3.6215775523        0.3287126085       55.8040831969  TIP3      2086            0.0000000000
     14835      2151  TIP3      OH2             7.1218945044       -0.3106390705       55.4849943602  TIP3      2087            0.0000000000
     14836      2151  TIP3      H1              6.1551331260       -0.2513208722       55.5631106951  TIP3      2087            0.0000000000
     14837      2151  TIP3      H2              7.3557452688       -0.9602958343       56.1785474553  TIP3      2087            0.0000000000
     14838      2152  TIP3      OH2             8.6664035676       -1.6980608882       57.3191383987  TIP3      2088            0.0000000000
     14839      2152  TIP3      H1              8.6406568870       -2.6751002918       57.3726364687  TIP3      2088            0.0000000000
     14840      2152  TIP3      H2              8.4613561948       -1.3993233751       58.2262205701  TIP3      2088            0.0000000000
     14841      2153  TIP3      OH2            -1.5385834297       -0.3955152894       56.4700038144  TIP3      2089            0.0000000000
     14842      2153  TIP3      H1             -1.3230866586       -1.1475219975       55.8909694338  TIP3      2089            0.0000000000
     14843      2153  TIP3      H2             -1.6646410312       -0.8324720989       57.3354343186  TIP3      2089            0.0000000000
     14844      2154  TIP3      OH2             3.3285768812       -4.3580801718       55.4042074838  TIP3      2090            0.0000000000
     14845      2154  TIP3      H1              3.9946093282       -5.0766102240       55.4137912544  TIP3      2090            0.0000000000
     14846      2154  TIP3      H2              3.2001358599       -4.2756409884       54.4363719841  TIP3      2090            0.0000000000
     14847      2155  TIP3      OH2             3.6897233923       -2.7886606731       57.5630963136  TIP3      2091            0.0000000000
     14848      2155  TIP3      H1              3.5059027613       -3.3090482245       56.7366009402  TIP3      2091            0.0000000000
     14849      2155  TIP3      H2              3.1060957241       -2.0135622574       57.4555023149  TIP3      2091            0.0000000000
     14850      2156  TIP3      OH2             3.1438837197       14.1540520904       40.7279952443  TIP3      2092            0.0000000000
     14851      2156  TIP3      H1              4.1135679301       14.1997815897       40.7863159234  TIP3      2092            0.0000000000
     14852      2156  TIP3      H2              3.0192727691       14.7154490684       39.9506273776  TIP3      2092            0.0000000000
     14853      2157  TIP3      OH2            -3.3181640282        8.6927778858       40.1912577365  TIP3      2093            0.0000000000
     14854      2157  TIP3      H1             -2.3536784198        8.7915761025       40.3513970779  TIP3      2093            0.0000000000
     14855      2157  TIP3      H2             -3.2869264894        8.0704188754       39.4252863449  TIP3      2093            0.0000000000
     14856      2158  TIP3      OH2            -4.5061893615       14.0695200105       45.1299952995  TIP3      2094            0.0000000000
     14857      2158  TIP3      H1             -5.2375940223       13.5792882476       44.6933247188  TIP3      2094            0.0000000000
     14858      2158  TIP3      H2             -4.2294991054       13.4355937994       45.8175128110  TIP3      2094            0.0000000000
     14859      2159  TIP3      OH2            -3.6815744028       12.2321396797       47.0358114561  TIP3      2095            0.0000000000
     14860      2159  TIP3      H1             -4.0511860435       11.3643464837       47.2522302076  TIP3      2095            0.0000000000
     14861      2159  TIP3      H2             -3.4471818392       12.5712786677       47.9163118809  TIP3      2095            0.0000000000
     14862      2160  TIP3      OH2            13.8668490447       13.0371481247       49.9313768256  TIP3      2096            0.0000000000
     14863      2160  TIP3      H1             13.9092463971       13.1694169215       50.8941770657  TIP3      2096            0.0000000000
     14864      2160  TIP3      H2             14.5673331805       13.6261923840       49.6362791218  TIP3      2096            0.0000000000
     14865      2161  TIP3      OH2            13.4354094918       12.6174662989       52.8899641506  TIP3      2097            0.0000000000
     14866      2161  TIP3      H1             12.9624099324       11.8499554965       52.5023246130  TIP3      2097            0.0000000000
     14867      2161  TIP3      H2             13.8842347886       12.1805336732       53.6343152460  TIP3      2097            0.0000000000
     14868      2162  TIP3      OH2            11.8754208097        8.3348706588       57.5829823708  TIP3      2098            0.0000000000
     14869      2162  TIP3      H1             10.9642932724        8.3330085374       57.9301724263  TIP3      2098            0.0000000000
     14870      2162  TIP3      H2             12.2419573068        9.1525070594       57.9643265726  TIP3      2098            0.0000000000
     14871      2163  TIP3      OH2            13.1952322709        6.6929830874       42.9687734178  TIP3      2099            0.0000000000
     14872      2163  TIP3      H1             14.0657451301        7.0760733311       43.1676349288  TIP3      2099            0.0000000000
     14873      2163  TIP3      H2             13.1576652645        5.9910099011       43.6527340961  TIP3      2099            0.0000000000
     14874      2164  TIP3      OH2            13.5354856317        4.7995207582       44.9023522304  TIP3      2100            0.0000000000
     14875      2164  TIP3      H1             12.7763804382        4.2764110607       45.2503601529  TIP3      2100            0.0000000000
     14876      2164  TIP3      H2             14.1323076373        4.8645004806       45.6713090573  TIP3      2100            0.0000000000
     14877      2165  TIP3      OH2            13.3015017905        7.4311040970       49.8716784368  TIP3      2101            0.0000000000
     14878      2165  TIP3      H1             14.0960348027        7.0368260808       49.4724618899  TIP3      2101            0.0000000000
     14879      2165  TIP3      H2             13.4550590483        8.3825936645       49.6970200925  TIP3      2101            0.0000000000
     14880      2166  TIP3      OH2            11.8653873012       10.3461514227       52.1321920762  TIP3      2102            0.0000000000
     14881      2166  TIP3      H1             11.1772582328       10.7051406389       52.7133389470  TIP3      2102            0.0000000000
     14882      2166  TIP3      H2             11.3246100816        9.9657731372       51.4088795900  TIP3      2102            0.0000000000
     14883      2167  TIP3      OH2            13.8559991227        4.5970235040       41.2675013978  TIP3      2103            0.0000000000
     14884      2167  TIP3      H1             13.2541290928        4.8969638889       40.5579161799  TIP3      2103            0.0000000000
     14885      2167  TIP3      H2             13.7200547866        5.3061159289       41.9240979800  TIP3      2103            0.0000000000
     14886      2168  TIP3      OH2            12.1274209485        1.8525953831       39.8823658861  TIP3      2104            0.0000000000
     14887      2168  TIP3      H1             12.3021461202        2.4293419594       39.1300739433  TIP3      2104            0.0000000000
     14888      2168  TIP3      H2             12.0851179642        1.0051760800       39.3630097777  TIP3      2104            0.0000000000
     14889      2169  TIP3      OH2            11.3672509432        3.2263934853       45.4707919428  TIP3      2105            0.0000000000
     14890      2169  TIP3      H1             11.2257544650        2.2724182556       45.3977320846  TIP3      2105            0.0000000000
     14891      2169  TIP3      H2             11.0695518305        3.4033900462       46.3856773902  TIP3      2105            0.0000000000
     14892      2170  TIP3      OH2            -3.6194279500        5.3221745719       49.5314283966  TIP3      2106            0.0000000000
     14893      2170  TIP3      H1             -3.4623860760        5.2289912970       48.5653730328  TIP3      2106            0.0000000000
     14894      2170  TIP3      H2             -2.7238638608        5.1134907732       49.8676018687  TIP3      2106            0.0000000000
     14895      2171  TIP3      OH2            12.2581456021        5.1784436234       55.1617437372  TIP3      2107            0.0000000000
     14896      2171  TIP3      H1             12.8629628363        4.4150209607       55.2734329054  TIP3      2107            0.0000000000
     14897      2171  TIP3      H2             12.8614517540        5.9509508908       55.1511795057  TIP3      2107            0.0000000000
     14898      2172  TIP3      OH2            13.7432600147        3.0454553742       55.7989447884  TIP3      2108            0.0000000000
     14899      2172  TIP3      H1             12.8489359116        2.6660205668       55.6604470400  TIP3      2108            0.0000000000
     14900      2172  TIP3      H2             14.3009561487        2.2463261995       55.7320313822  TIP3      2108            0.0000000000
     14901      2173  TIP3      OH2            11.1999641607       -0.7420637306       39.3434988989  TIP3      2109            0.0000000000
     14902      2173  TIP3      H1             12.0056187434       -1.2467667168       39.5516959858  TIP3      2109            0.0000000000
     14903      2173  TIP3      H2             10.5266464229       -1.3771166568       39.1007488111  TIP3      2109            0.0000000000
     14904      2174  TIP3      OH2            10.9962166287        0.8013871181       43.8688380304  TIP3      2110            0.0000000000
     14905      2174  TIP3      H1             11.2966555139       -0.1260441443       44.0268098333  TIP3      2110            0.0000000000
     14906      2174  TIP3      H2             11.8287351814        1.1981937207       43.5792144783  TIP3      2110            0.0000000000
     14907      2175  TIP3      OH2            11.6834112406        1.3483458620       49.3680201285  TIP3      2111            0.0000000000
     14908      2175  TIP3      H1             12.6416841713        1.5830019372       49.3463157626  TIP3      2111            0.0000000000
     14909      2175  TIP3      H2             11.5039272331        1.4941799682       50.3096775669  TIP3      2111            0.0000000000
     14910      2176  TIP3      OH2            11.7436586050        2.0830531467       52.1099390033  TIP3      2112            0.0000000000
     14911      2176  TIP3      H1             10.8564238552        2.3598651267       52.4284351251  TIP3      2112            0.0000000000
     14912      2176  TIP3      H2             12.1831178908        2.9438904093       51.9143943615  TIP3      2112            0.0000000000
     14913      2177  TIP3      OH2            -3.9900376166        0.6208075268       55.7183888665  TIP3      2113            0.0000000000
     14914      2177  TIP3      H1             -3.0522972557        0.3798329373       55.8879928181  TIP3      2113            0.0000000000
     14915      2177  TIP3      H2             -4.4597275670       -0.2150078941       55.9229191604  TIP3      2113            0.0000000000
     14916      2178  TIP3      OH2            13.9854726649       -3.8493148054       57.4398432180  TIP3      2114            0.0000000000
     14917      2178  TIP3      H1             14.4125898131       -4.5107792554       56.8716852690  TIP3      2114            0.0000000000
     14918      2178  TIP3      H2             14.1123587521       -3.0335569545       56.9153558909  TIP3      2114            0.0000000000
     14919      2179  TIP3      OH2            11.7132737133       -1.8990753818       43.9368460478  TIP3      2115            0.0000000000
     14920      2179  TIP3      H1             11.9542037066       -2.3077813237       44.7989044783  TIP3      2115            0.0000000000
     14921      2179  TIP3      H2             11.1285654083       -2.5653637068       43.5218512676  TIP3      2115            0.0000000000
     14922      2180  TIP3      OH2            -2.8054829952       -1.0896667446       48.5406986366  TIP3      2116            0.0000000000
     14923      2180  TIP3      H1             -2.3519433587       -1.9296730269       48.7646180927  TIP3      2116            0.0000000000
     14924      2180  TIP3      H2             -2.2129229497       -0.4114694754       48.8912218783  TIP3      2116            0.0000000000
     14925      2181  TIP3      OH2            -4.5244069085        1.9245606843       49.5510694386  TIP3      2117            0.0000000000
     14926      2181  TIP3      H1             -3.9607388262        1.6424419181       48.8023254718  TIP3      2117            0.0000000000
     14927      2181  TIP3      H2             -4.0251903225        2.7096321456       49.8193214630  TIP3      2117            0.0000000000
     14928      2182  TIP3      OH2            13.5437072484       -1.7530293117       55.8180425518  TIP3      2118            0.0000000000
     14929      2182  TIP3      H1             12.6185811322       -1.4309612694       55.8204044460  TIP3      2118            0.0000000000
     14930      2182  TIP3      H2             13.5014009577       -2.3026033648       55.0235470756  TIP3      2118            0.0000000000
     14931      2183  TIP3      OH2            13.5248680796       -1.8912345182       40.5464400778  TIP3      2119            0.0000000000
     14932      2183  TIP3      H1             13.9161178728       -2.5637743675       39.9469083729  TIP3      2119            0.0000000000
     14933      2183  TIP3      H2             14.2027376039       -1.2020700440       40.5518187912  TIP3      2119            0.0000000000
     14934      2184  TIP3      OH2            -4.1471241038       -1.7951097180       43.6512394809  TIP3      2120            0.0000000000
     14935      2184  TIP3      H1             -5.0928214785       -1.6806082030       43.4731413081  TIP3      2120            0.0000000000
     14936      2184  TIP3      H2             -3.7541474239       -1.3306169712       42.8933168769  TIP3      2120            0.0000000000
     14937      2185  TIP3      OH2            10.5778979588       13.1148056695       45.5894916620  TIP3      2121            0.0000000000
     14938      2185  TIP3      H1             11.2663384273       12.8325058052       44.9600693503  TIP3      2121            0.0000000000
     14939      2185  TIP3      H2             11.0796294112       13.6198986278       46.2483218508  TIP3      2121            0.0000000000
     14940      2186  TIP3      OH2            -4.2125049045       -3.1911746839       51.9245151640  TIP3      2122            0.0000000000
     14941      2186  TIP3      H1             -4.8815298736       -3.3911349729       52.6035579388  TIP3      2122            0.0000000000
     14942      2186  TIP3      H2             -4.6678200644       -2.5266839830       51.3751040548  TIP3      2122            0.0000000000
     14943      2187  TIP3      OH2            -1.9472648117        9.9893032454       56.0688386128  TIP3      2123            0.0000000000
     14944      2187  TIP3      H1             -2.7838143567       10.2355654417       55.6381256759  TIP3      2123            0.0000000000
     14945      2187  TIP3      H2             -2.2130693477        9.9136625198       56.9878837390  TIP3      2123            0.0000000000
     14946      2188  TIP3      OH2             0.9267309667       11.0334230060       52.3629124292  TIP3      2124            0.0000000000
     14947      2188  TIP3      H1              0.6528692271       11.9328501687       52.1163052918  TIP3      2124            0.0000000000
     14948      2188  TIP3      H2              1.8597488170       11.0910935710       52.0722172697  TIP3      2124            0.0000000000
     14949      2189  TIP3      OH2             5.2442062436       12.4472226634       55.2438183544  TIP3      2125            0.0000000000
     14950      2189  TIP3      H1              5.3597809649       12.0929730294       56.1527941202  TIP3      2125            0.0000000000
     14951      2189  TIP3      H2              6.1521954526       12.7658206390       55.0288647529  TIP3      2125            0.0000000000
     14952      2190  TIP3      OH2             7.5309339917       13.7179769171       54.5825326762  TIP3      2126            0.0000000000
     14953      2190  TIP3      H1              8.2786031818       13.1580061079       54.3404125774  TIP3      2126            0.0000000000
     14954      2190  TIP3      H2              7.8934645901       14.1719120230       55.3737926524  TIP3      2126            0.0000000000
     14955      2191  TIP3      OH2            12.4881128266       -3.4113992508       53.8391295648  TIP3      2127            0.0000000000
     14956      2191  TIP3      H1             11.6431980342       -3.1588288876       53.4060972274  TIP3      2127            0.0000000000
     14957      2191  TIP3      H2             12.6689852397       -4.2911484922       53.5460236481  TIP3      2127            0.0000000000
     14958      2192  TIP3      OH2            -1.6510300278       14.2585578228       52.3273869745  TIP3      2128            0.0000000000
     14959      2192  TIP3      H1             -2.3839265621       14.7755898330       51.9539313585  TIP3      2128            0.0000000000
     14960      2192  TIP3      H2             -1.9279913767       14.0900131617       53.2395952785  TIP3      2128            0.0000000000
     14961      2193  TIP3      OH2             0.8143000233       13.8243490568       51.4086010471  TIP3      2129            0.0000000000
     14962      2193  TIP3      H1             -0.0720436128       14.0068518258       51.8031929322  TIP3      2129            0.0000000000
     14963      2193  TIP3      H2              0.7788096641       14.4331264631       50.6512153684  TIP3      2129            0.0000000000
     14964      2194  TIP3      OH2             5.5298365373       13.7428945202       50.5763605356  TIP3      2130            0.0000000000
     14965      2194  TIP3      H1              5.0615655121       14.3034088895       49.9419269587  TIP3      2130            0.0000000000
     14966      2194  TIP3      H2              5.6596081585       14.3639427615       51.3289104329  TIP3      2130            0.0000000000
     14967      2195  TIP3      OH2             7.7792147813       12.5064575437       51.6772150007  TIP3      2131            0.0000000000
     14968      2195  TIP3      H1              6.9689281805       12.8283397488       51.2459121856  TIP3      2131            0.0000000000
     14969      2195  TIP3      H2              8.3234144865       13.3053052053       51.5773280261  TIP3      2131            0.0000000000
     14970      2196  TIP3      OH2            10.3575876571       14.0736112215       51.8190622287  TIP3      2132            0.0000000000
     14971      2196  TIP3      H1             10.3767695832       15.0398664274       51.6095533120  TIP3      2132            0.0000000000
     14972      2196  TIP3      H2             10.6100043075       13.7038630681       50.9477951993  TIP3      2132            0.0000000000
     14973      2197  TIP3      OH2            -2.1567307189       12.9070033252       49.2983317883  TIP3      2133            0.0000000000
     14974      2197  TIP3      H1             -2.2610706782       12.4285908797       50.1474698704  TIP3      2133            0.0000000000
     14975      2197  TIP3      H2             -1.3486120133       12.5022011394       48.9153535575  TIP3      2133            0.0000000000
     14976      2198  TIP3      OH2            -0.0964031351       11.6147742139       47.9466624631  TIP3      2134            0.0000000000
     14977      2198  TIP3      H1             -0.2456214942       10.6848700416       48.2030614798  TIP3      2134            0.0000000000
     14978      2198  TIP3      H2              0.7602738665       11.7907679499       48.3862095299  TIP3      2134            0.0000000000
     14979      2199  TIP3      OH2             2.5144068746       12.1019759286       48.8321839394  TIP3      2135            0.0000000000
     14980      2199  TIP3      H1              2.6497090021       11.1694722950       48.5814361247  TIP3      2135            0.0000000000
     14981      2199  TIP3      H2              2.5524724494       12.0533601251       49.7984666946  TIP3      2135            0.0000000000
     14982      2200  TIP3      OH2             5.9484532339       -2.2519101255       47.9610757088  TIP3      2136            0.0000000000
     14983      2200  TIP3      H1              5.2704889481       -2.8826407539       48.2583644269  TIP3      2136            0.0000000000
     14984      2200  TIP3      H2              6.4943538933       -2.7987129149       47.3869642376  TIP3      2136            0.0000000000
     14985      2201  TIP3      OH2            11.1168843819       -4.1984815035       48.0557379766  TIP3      2137            0.0000000000
     14986      2201  TIP3      H1             11.7012790305       -3.6231791781       47.5006283391  TIP3      2137            0.0000000000
     14987      2201  TIP3      H2             10.2264103403       -3.8650926885       47.8072885019  TIP3      2137            0.0000000000
     14988      2202  TIP3      OH2            12.7277799299       -2.9295227082       46.2643298638  TIP3      2138            0.0000000000
     14989      2202  TIP3      H1             13.4185224787       -3.5251884095       45.8864743480  TIP3      2138            0.0000000000
     14990      2202  TIP3      H2             13.2677454100       -2.1155779567       46.4084463150  TIP3      2138            0.0000000000
     14991      2203  TIP3      OH2            -1.6558040441       -3.6378311783       45.8262272994  TIP3      2139            0.0000000000
     14992      2203  TIP3      H1             -2.4598634756       -3.7926526332       45.2939842626  TIP3      2139            0.0000000000
     14993      2203  TIP3      H2             -1.2304188549       -4.5167824173       45.7471583927  TIP3      2139            0.0000000000
     14994      2204  TIP3      OH2            -2.9291774014       -3.8832795113       41.5012068439  TIP3      2140            0.0000000000
     14995      2204  TIP3      H1             -2.4064763313       -3.2294443194       41.0021972119  TIP3      2140            0.0000000000
     14996      2204  TIP3      H2             -3.4618647096       -3.3094531634       42.0741984200  TIP3      2140            0.0000000000
     14997      2205  TIP3      OH2             2.7552333802       -3.7102763624       45.6111622284  TIP3      2141            0.0000000000
     14998      2205  TIP3      H1              3.6521681920       -3.3609622476       45.4935058654  TIP3      2141            0.0000000000
     14999      2205  TIP3      H2              2.7569433694       -3.9260148461       46.5429272404  TIP3      2141            0.0000000000
     15000      2206  TIP3      OH2             8.5526567076       -3.6917548308       47.1957702507  TIP3      2142            0.0000000000
     15001      2206  TIP3      H1              8.4340544421       -3.5520037630       46.2503500825  TIP3      2142            0.0000000000
     15002      2206  TIP3      H2              8.1392690499       -4.5771097305       47.3375681169  TIP3      2142            0.0000000000
     15003      2207  TIP3      OH2             9.7647431055       -3.6581270873       42.8908209413  TIP3      2143            0.0000000000
     15004      2207  TIP3      H1              9.0051168946       -3.0702342742       42.7630018530  TIP3      2143            0.0000000000
     15005      2207  TIP3      H2              9.3364663015       -4.5031804954       43.1604758641  TIP3      2143            0.0000000000
     15006      2208  TIP3      OH2            -3.0182858050       12.0640780157       42.6014138055  TIP3      2144            0.0000000000
     15007      2208  TIP3      H1             -3.6589364432       12.0373956885       41.8669615854  TIP3      2144            0.0000000000
     15008      2208  TIP3      H2             -3.0088505493       13.0229479803       42.7340591533  TIP3      2144            0.0000000000
     15009      2209  TIP3      OH2            -1.1155782883       -1.9392993044       40.0677490065  TIP3      2145            0.0000000000
     15010      2209  TIP3      H1             -0.5796596447       -2.5410476393       39.5229267127  TIP3      2145            0.0000000000
     15011      2209  TIP3      H2             -0.4393111613       -1.6000678527       40.6816540402  TIP3      2145            0.0000000000
     15012      2210  TIP3      OH2             3.9024688379       -1.7121629987       42.4541037107  TIP3      2146            0.0000000000
     15013      2210  TIP3      H1              4.1913535759       -2.2667542982       43.1970553486  TIP3      2146            0.0000000000
     15014      2210  TIP3      H2              4.0375208627       -0.8306503993       42.8656659170  TIP3      2146            0.0000000000
     15015      2211  TIP3      OH2             5.8832959186       13.4176454076       40.8855858153  TIP3      2147            0.0000000000
     15016      2211  TIP3      H1              6.8168469156       13.5842895720       40.6703357079  TIP3      2147            0.0000000000
     15017      2211  TIP3      H2              5.6583091912       12.8529499699       40.1159211348  TIP3      2147            0.0000000000
     15018      2212  TIP3      OH2            12.5398680558       12.8590524094       43.6432836084  TIP3      2148            0.0000000000
     15019      2212  TIP3      H1             12.3650130731       12.0753924519       43.0703011688  TIP3      2148            0.0000000000
     15020      2212  TIP3      H2             12.4751822205       13.5959652600       42.9992816153  TIP3      2148            0.0000000000
     15021      2213  TIP3      OH2            -1.8043662180       -3.0759287833       55.2617245442  TIP3      2149            0.0000000000
     15022      2213  TIP3      H1             -2.2298209040       -3.8785449550       55.6242615377  TIP3      2149            0.0000000000
     15023      2213  TIP3      H2             -0.9101118866       -3.1378061150       55.6783437376  TIP3      2149            0.0000000000
     15024      2214  TIP3      OH2             0.1778595994       -3.6768228317       56.9555149746  TIP3      2150            0.0000000000
     15025      2214  TIP3      H1              1.0675051269       -4.0111669943       56.7190293865  TIP3      2150            0.0000000000
     15026      2214  TIP3      H2             -0.1912805997       -4.4973933914       57.3367552670  TIP3      2150            0.0000000000
     15027      2215  TIP3      OH2            -1.2260147114       13.0688008756       39.5143064117  TIP3      2151            0.0000000000
     15028      2215  TIP3      H1             -1.4872307532       13.3262708015       40.4090949768  TIP3      2151            0.0000000000
     15029      2215  TIP3      H2             -0.4450577323       12.5015529200       39.6642787338  TIP3      2151            0.0000000000
     15030      2216  TIP3      OH2             8.5832588081       -4.4110761802       57.0969946020  TIP3      2152            0.0000000000
     15031      2216  TIP3      H1              8.6774016054       -4.8994046989       57.9400697397  TIP3      2152            0.0000000000
     15032      2216  TIP3      H2              9.4982723195       -4.4261079128       56.7589664438  TIP3      2152            0.0000000000
     15033      2217  TIP3      OH2            11.8125947217       11.6474558683       55.6718640455  TIP3      2153            0.0000000000
     15034      2217  TIP3      H1             11.0163904381       11.5231647460       55.1109488939  TIP3      2153            0.0000000000
     15035      2217  TIP3      H2             11.6923028550       12.5910908396       55.8964440866  TIP3      2153            0.0000000000
     15036      2218  TIP3      OH2            17.4291671912        4.4391592193       50.7237667137  TIP3      2154            0.0000000000
     15037      2218  TIP3      H1             17.5377275389        3.7463363333       51.4034996552  TIP3      2154            0.0000000000
     15038      2218  TIP3      H2             18.1778658431        5.0118761715       50.9474968196  TIP3      2154            0.0000000000
     15039      2219  TIP3      OH2            18.3866623399        8.9011962203       49.1938645287  TIP3      2155            0.0000000000
     15040      2219  TIP3      H1             18.0775386633        8.0220473886       48.9015177964  TIP3      2155            0.0000000000
     15041      2219  TIP3      H2             19.3439374540        8.7125726816       49.2337584389  TIP3      2155            0.0000000000
     15042      2220  TIP3      OH2            15.0086638861        2.4282116369       44.7145933018  TIP3      2156            0.0000000000
     15043      2220  TIP3      H1             14.5964484946        3.3078908988       44.6463934834  TIP3      2156            0.0000000000
     15044      2220  TIP3      H2             14.4569036964        1.8929893182       44.1295998865  TIP3      2156            0.0000000000
     15045      2221  TIP3      OH2            15.7561355539        4.6796329256       46.8979707494  TIP3      2157            0.0000000000
     15046      2221  TIP3      H1             16.0475916859        3.8370363406       47.3053478528  TIP3      2157            0.0000000000
     15047      2221  TIP3      H2             16.4045202311        4.8004803139       46.1885982210  TIP3      2157            0.0000000000
     15048      2222  TIP3      OH2            19.5210769001       -0.2764635418       47.1644934817  TIP3      2158            0.0000000000
     15049      2222  TIP3      H1             19.9187822147        0.4873193619       46.6966413790  TIP3      2158            0.0000000000
     15050      2222  TIP3      H2             19.2723138229       -0.8511798407       46.4138256173  TIP3      2158            0.0000000000
     15051      2223  TIP3      OH2            16.3969193487        2.1334345353       47.8889935349  TIP3      2159            0.0000000000
     15052      2223  TIP3      H1             17.0686440619        1.6046193611       48.3565017159  TIP3      2159            0.0000000000
     15053      2223  TIP3      H2             16.5298942354        1.8100939659       46.9824980289  TIP3      2159            0.0000000000
     15054      2224  TIP3      OH2            21.5495414249        3.6937287680       47.2432454876  TIP3      2160            0.0000000000
     15055      2224  TIP3      H1             22.2346521456        3.1158855899       47.6254971936  TIP3      2160            0.0000000000
     15056      2224  TIP3      H2             20.9983109313        3.0326834600       46.7795726108  TIP3      2160            0.0000000000
     15057      2225  TIP3      OH2            18.6419797367       -1.3655703905       51.2145483233  TIP3      2161            0.0000000000
     15058      2225  TIP3      H1             18.3872455462       -0.7719252376       50.4710683462  TIP3      2161            0.0000000000
     15059      2225  TIP3      H2             17.9685637818       -1.1296763652       51.8978382105  TIP3      2161            0.0000000000
     15060      2226  TIP3      OH2            21.2082947428        6.2844530886       51.4546015541  TIP3      2162            0.0000000000
     15061      2226  TIP3      H1             20.4474640305        6.8672670253       51.6918193901  TIP3      2162            0.0000000000
     15062      2226  TIP3      H2             21.8324541552        6.9441769784       51.1423105394  TIP3      2162            0.0000000000
     15063      2227  TIP3      OH2            18.2452147432        0.4859294002       49.2909188007  TIP3      2163            0.0000000000
     15064      2227  TIP3      H1             18.8902497402        1.1718265737       49.5723242074  TIP3      2163            0.0000000000
     15065      2227  TIP3      H2             18.7130026123        0.1046908232       48.4990844275  TIP3      2163            0.0000000000
     15066      2228  TIP3      OH2            19.6434066971        8.2811087957       52.2569227439  TIP3      2164            0.0000000000
     15067      2228  TIP3      H1             19.5884055854        9.1985728005       51.9354512980  TIP3      2164            0.0000000000
     15068      2228  TIP3      H2             18.7630306552        8.1895290102       52.7109817072  TIP3      2164            0.0000000000
     15069      2229  TIP3      OH2            15.7226133104        7.8530960671       43.0299846047  TIP3      2165            0.0000000000
     15070      2229  TIP3      H1             15.4814701295        8.2454425691       42.1714226535  TIP3      2165            0.0000000000
     15071      2229  TIP3      H2             15.8128171339        8.6502640067       43.5888976922  TIP3      2165            0.0000000000
     15072      2230  TIP3      OH2            22.5585296022       -4.0528647292       48.5969632955  TIP3      2166            0.0000000000
     15073      2230  TIP3      H1             22.4800425626       -5.0101949694       48.6495571488  TIP3      2166            0.0000000000
     15074      2230  TIP3      H2             21.7247131302       -3.7405444150       48.9821104273  TIP3      2166            0.0000000000
     15075      2231  TIP3      OH2            19.9337890342        5.5989891899       46.0220311392  TIP3      2167            0.0000000000
     15076      2231  TIP3      H1             19.6704475548        5.2121296882       45.1570370900  TIP3      2167            0.0000000000
     15077      2231  TIP3      H2             20.5757938936        4.9383627554       46.3690776005  TIP3      2167            0.0000000000
     15078      2232  TIP3      OH2            21.2211808056        8.9319464321       48.7664638737  TIP3      2168            0.0000000000
     15079      2232  TIP3      H1             21.2433649320        8.5142569095       47.8911034835  TIP3      2168            0.0000000000
     15080      2232  TIP3      H2             22.1296146704        8.7559392826       49.0669562324  TIP3      2168            0.0000000000
     15081      2233  TIP3      OH2            20.2878733549        4.4018031354       49.7305041839  TIP3      2169            0.0000000000
     15082      2233  TIP3      H1             20.8659394780        4.4093840432       48.9411256520  TIP3      2169            0.0000000000
     15083      2233  TIP3      H2             20.7464467598        5.0470374993       50.3128353277  TIP3      2169            0.0000000000
     15084      2234  TIP3      OH2            21.2272696193        8.6866347105       54.3937106325  TIP3      2170            0.0000000000
     15085      2234  TIP3      H1             20.8976396269        9.4944987837       54.8507506011  TIP3      2170            0.0000000000
     15086      2234  TIP3      H2             20.6007770370        8.5715166089       53.6485738256  TIP3      2170            0.0000000000
     15087      2235  TIP3      OH2            18.2326929514        4.9626282323       53.4969466023  TIP3      2171            0.0000000000
     15088      2235  TIP3      H1             18.2819023304        5.6307706536       54.2038855161  TIP3      2171            0.0000000000
     15089      2235  TIP3      H2             17.2765359887        5.0159197189       53.3333696576  TIP3      2171            0.0000000000
     15090      2236  TIP3      OH2            19.5544889073       10.7748804423       55.0821709516  TIP3      2172            0.0000000000
     15091      2236  TIP3      H1             19.4110620531       10.7086426643       54.1182988231  TIP3      2172            0.0000000000
     15092      2236  TIP3      H2             18.6389665826       10.6916257805       55.4176023567  TIP3      2172            0.0000000000
     15093      2237  TIP3      OH2            18.9252690132        4.5952251636       43.6418635094  TIP3      2173            0.0000000000
     15094      2237  TIP3      H1             18.6630408468        5.3981993825       43.1394054739  TIP3      2173            0.0000000000
     15095      2237  TIP3      H2             18.2509106803        3.9604768887       43.3885240195  TIP3      2173            0.0000000000
     15096      2238  TIP3      OH2            15.0335796316        7.0806334460       52.5671153089  TIP3      2174            0.0000000000
     15097      2238  TIP3      H1             14.5937740473        6.9931235089       51.7019966009  TIP3      2174            0.0000000000
     15098      2238  TIP3      H2             15.1448720807        6.1301402975       52.7768291058  TIP3      2174            0.0000000000
     15099      2239  TIP3      OH2            14.7974400098        9.8032439324       49.3144856697  TIP3      2175            0.0000000000
     15100      2239  TIP3      H1             15.7576447001        9.6973524017       49.2610213174  TIP3      2175            0.0000000000
     15101      2239  TIP3      H2             14.7194006386       10.6310765772       49.8053928411  TIP3      2175            0.0000000000
     15102      2240  TIP3      OH2            18.0776021093       12.6615205543       45.4868502663  TIP3      2176            0.0000000000
     15103      2240  TIP3      H1             18.2083764956       12.2612497182       46.3772144965  TIP3      2176            0.0000000000
     15104      2240  TIP3      H2             17.2207424167       12.2634772180       45.2494561613  TIP3      2176            0.0000000000
     15105      2241  TIP3      OH2            17.3205178989        8.3914441237       53.4685915991  TIP3      2177            0.0000000000
     15106      2241  TIP3      H1             17.5391045814        8.0554168540       54.3683786639  TIP3      2177            0.0000000000
     15107      2241  TIP3      H2             16.4457514017        7.9986704060       53.2753626226  TIP3      2177            0.0000000000
     15108      2242  TIP3      OH2            20.0105883671       -3.0978090024       49.4159290448  TIP3      2178            0.0000000000
     15109      2242  TIP3      H1             19.1072068165       -3.2540155729       49.0682801782  TIP3      2178            0.0000000000
     15110      2242  TIP3      H2             19.8634240214       -2.2846678505       49.9299098799  TIP3      2178            0.0000000000
     15111      2243  TIP3      OH2            20.0919580005        1.8288382342       50.7382131333  TIP3      2179            0.0000000000
     15112      2243  TIP3      H1             19.3257668820        1.8425526964       51.3420505742  TIP3      2179            0.0000000000
     15113      2243  TIP3      H2             20.0343778901        2.7077824332       50.3147909589  TIP3      2179            0.0000000000
     15114      2244  TIP3      OH2            20.0592043565        1.9311411806       45.5122840735  TIP3      2180            0.0000000000
     15115      2244  TIP3      H1             19.1103224693        1.7002086123       45.4304913753  TIP3      2180            0.0000000000
     15116      2244  TIP3      H2             20.4143475215        1.6351545238       44.6575384467  TIP3      2180            0.0000000000
     15117      2245  TIP3      OH2            17.6976019965        2.0810079639       52.3469845866  TIP3      2181            0.0000000000
     15118      2245  TIP3      H1             17.8487849558        2.4790559748       53.2176557223  TIP3      2181            0.0000000000
     15119      2245  TIP3      H2             17.3148610138        1.2226949350       52.5843353316  TIP3      2181            0.0000000000
     15120      2246  TIP3      OH2            21.0062810462       -0.6530752353       39.2766374928  TIP3      2182            0.0000000000
     15121      2246  TIP3      H1             20.5232236622       -0.9706224855       40.0553298130  TIP3      2182            0.0000000000
     15122      2246  TIP3      H2             20.3632932056       -0.1032018213       38.8049149808  TIP3      2182            0.0000000000
     15123      2247  TIP3      OH2            14.3940160214       -0.8432859878       46.3904417248  TIP3      2183            0.0000000000
     15124      2247  TIP3      H1             15.0965530976       -0.8779750446       47.0752469712  TIP3      2183            0.0000000000
     15125      2247  TIP3      H2             14.8358052653       -1.1711232364       45.5859114039  TIP3      2183            0.0000000000
     15126      2248  TIP3      OH2            15.6637699412       -0.0906603690       41.7507713749  TIP3      2184            0.0000000000
     15127      2248  TIP3      H1             16.1532809338        0.4811750634       41.1314073192  TIP3      2184            0.0000000000
     15128      2248  TIP3      H2             14.9436996862        0.5281249115       41.9993591745  TIP3      2184            0.0000000000
     15129      2249  TIP3      OH2            22.0838691782       -0.2243500522       46.7064223307  TIP3      2185            0.0000000000
     15130      2249  TIP3      H1             21.3010054058       -0.6039088490       47.1355497412  TIP3      2185            0.0000000000
     15131      2249  TIP3      H2             22.7888918067       -0.4340083860       47.3371740211  TIP3      2185            0.0000000000
     15132      2250  TIP3      OH2            17.4010046760        1.0585478914       45.4353663809  TIP3      2186            0.0000000000
     15133      2250  TIP3      H1             16.5361750682        1.2329279520       45.0088007303  TIP3      2186            0.0000000000
     15134      2250  TIP3      H2             17.6890444300        0.2291427984       45.0065329917  TIP3      2186            0.0000000000
     15135      2251  TIP3      OH2            21.1481111809        1.0711064195       43.0321844820  TIP3      2187            0.0000000000
     15136      2251  TIP3      H1             22.0269932073        1.3812199528       43.2190209976  TIP3      2187            0.0000000000
     15137      2251  TIP3      H2             20.7915052285        1.7418536371       42.4117853647  TIP3      2187            0.0000000000
     15138      2252  TIP3      OH2            19.8187355522        2.2280654194       40.6387045499  TIP3      2188            0.0000000000
     15139      2252  TIP3      H1             19.2231602800        1.9052239372       39.9391140300  TIP3      2188            0.0000000000
     15140      2252  TIP3      H2             20.5926250735        2.4903839205       40.1133725864  TIP3      2188            0.0000000000
     15141      2253  TIP3      OH2            17.8880035624        6.9039355874       55.6894864343  TIP3      2189            0.0000000000
     15142      2253  TIP3      H1             18.6318594266        7.1144331856       56.2810220929  TIP3      2189            0.0000000000
     15143      2253  TIP3      H2             17.1374813392        6.9052971184       56.3218839729  TIP3      2189            0.0000000000
     15144      2254  TIP3      OH2            18.9212196946       -1.5581965177       44.8685166571  TIP3      2190            0.0000000000
     15145      2254  TIP3      H1             18.5692462437       -2.4687322935       44.9117189112  TIP3      2190            0.0000000000
     15146      2254  TIP3      H2             19.7047022933       -1.6747213436       44.3246083583  TIP3      2190            0.0000000000
     15147      2255  TIP3      OH2            22.3903910830        0.4095466489       51.1639562673  TIP3      2191            0.0000000000
     15148      2255  TIP3      H1             21.7440082496        1.0719002219       50.8363635604  TIP3      2191            0.0000000000
     15149      2255  TIP3      H2             23.0766063770        0.9855661809       51.4790504307  TIP3      2191            0.0000000000
     15150      2256  TIP3      OH2            22.9853335332        6.7418750232       42.3706655411  TIP3      2192            0.0000000000
     15151      2256  TIP3      H1             22.1290960228        6.2888406873       42.2370775791  TIP3      2192            0.0000000000
     15152      2256  TIP3      H2             22.9701044325        6.9230328469       43.3261942240  TIP3      2192            0.0000000000
     15153      2257  TIP3      OH2            18.2694214571        6.2252234797       48.3653315699  TIP3      2193            0.0000000000
     15154      2257  TIP3      H1             18.8946402445        6.1172346832       47.6244433782  TIP3      2193            0.0000000000
     15155      2257  TIP3      H2             18.3134836244        5.3607208792       48.8098702945  TIP3      2193            0.0000000000
     15156      2258  TIP3      OH2            15.2278383796        4.6091977907       53.6129215577  TIP3      2194            0.0000000000
     15157      2258  TIP3      H1             15.3703223749        4.1566077252       54.4684353942  TIP3      2194            0.0000000000
     15158      2258  TIP3      H2             14.6002069868        4.0200587511       53.1554711152  TIP3      2194            0.0000000000
     15159      2259  TIP3      OH2            22.3502749419        4.2307900984       55.7549581070  TIP3      2195            0.0000000000
     15160      2259  TIP3      H1             21.8532124125        3.8348673988       55.0189202997  TIP3      2195            0.0000000000
     15161      2259  TIP3      H2             23.1581996703        3.7055183870       55.7789140360  TIP3      2195            0.0000000000
     15162      2260  TIP3      OH2            20.5868702097        9.7058355801       45.8311212392  TIP3      2196            0.0000000000
     15163      2260  TIP3      H1             21.0854257868       10.4721108287       45.5084973691  TIP3      2196            0.0000000000
     15164      2260  TIP3      H2             19.7121095567        9.8962171106       45.4670983041  TIP3      2196            0.0000000000
     15165      2261  TIP3      OH2            16.4054211078        4.4973150005       40.3330982988  TIP3      2197            0.0000000000
     15166      2261  TIP3      H1             16.9582770258        5.1865607183       40.7388622180  TIP3      2197            0.0000000000
     15167      2261  TIP3      H2             15.4951212408        4.7953245001       40.5435485528  TIP3      2197            0.0000000000
     15168      2262  TIP3      OH2            21.9836503478        7.3488161608       45.2210555304  TIP3      2198            0.0000000000
     15169      2262  TIP3      H1             21.6640873511        8.2539513596       45.3802792523  TIP3      2198            0.0000000000
     15170      2262  TIP3      H2             21.3070664275        6.8292144586       45.6935600105  TIP3      2198            0.0000000000
     15171      2263  TIP3      OH2            22.4770891386       11.4964714477       51.6155017369  TIP3      2199            0.0000000000
     15172      2263  TIP3      H1             22.8984017862       12.3481119408       51.4549983579  TIP3      2199            0.0000000000
     15173      2263  TIP3      H2             23.0363618714       11.1277443699       52.3124186019  TIP3      2199            0.0000000000
     15174      2264  TIP3      OH2            20.7192119077       12.3643673578       44.7636992991  TIP3      2200            0.0000000000
     15175      2264  TIP3      H1             19.7448588510       12.3986294702       44.9243564315  TIP3      2200            0.0000000000
     15176      2264  TIP3      H2             20.9736307854       13.1804672039       45.2110962908  TIP3      2200            0.0000000000
     15177      2265  TIP3      OH2            16.8695974294       -0.6466031408       53.1656938634  TIP3      2201            0.0000000000
     15178      2265  TIP3      H1             15.9772997581       -0.2662858008       53.1834920086  TIP3      2201            0.0000000000
     15179      2265  TIP3      H2             16.7794036328       -1.4699781496       53.6702070214  TIP3      2201            0.0000000000
     15180      2266  TIP3      OH2            16.4976410243       11.1034404025       51.5882089631  TIP3      2202            0.0000000000
     15181      2266  TIP3      H1             16.8445788309       10.2013947366       51.5976079269  TIP3      2202            0.0000000000
     15182      2266  TIP3      H2             16.7529360718       11.4206370064       52.4614960462  TIP3      2202            0.0000000000
     15183      2267  TIP3      OH2            22.3355671416        9.7116878737       38.7697842935  TIP3      2203            0.0000000000
     15184      2267  TIP3      H1             22.5820888901        8.9157857293       38.2868366622  TIP3      2203            0.0000000000
     15185      2267  TIP3      H2             22.0991015702        9.3002672757       39.6315987197  TIP3      2203            0.0000000000
     15186      2268  TIP3      OH2            21.2376247485        9.1851237491       41.3354582569  TIP3      2204            0.0000000000
     15187      2268  TIP3      H1             21.5580902688        8.6362595998       42.0615202161  TIP3      2204            0.0000000000
     15188      2268  TIP3      H2             21.3381393438       10.1068178912       41.6672685504  TIP3      2204            0.0000000000
     15189      2269  TIP3      OH2            17.8107215230        6.4394859341       41.8243796201  TIP3      2205            0.0000000000
     15190      2269  TIP3      H1             17.0875587483        6.8494767297       42.3384738352  TIP3      2205            0.0000000000
     15191      2269  TIP3      H2             18.2904917590        7.2150633200       41.4838438310  TIP3      2205            0.0000000000
     15192      2270  TIP3      OH2            21.3835597777       11.8697787295       42.0100747584  TIP3      2206            0.0000000000
     15193      2270  TIP3      H1             21.4911919417       12.6817782269       41.4503262314  TIP3      2206            0.0000000000
     15194      2270  TIP3      H2             21.1487113627       12.2296878681       42.8879798806  TIP3      2206            0.0000000000
     15195      2271  TIP3      OH2            19.9115818951       -1.3393801328       41.6545042568  TIP3      2207            0.0000000000
     15196      2271  TIP3      H1             19.9432428842       -0.4469806734       42.0381804833  TIP3      2207            0.0000000000
     15197      2271  TIP3      H2             20.8483492481       -1.6030118591       41.8289166967  TIP3      2207            0.0000000000
     15198      2272  TIP3      OH2            18.3140800512        9.0467762329       40.6452168716  TIP3      2208            0.0000000000
     15199      2272  TIP3      H1             19.0248566719        9.6147411617       40.9901674744  TIP3      2208            0.0000000000
     15200      2272  TIP3      H2             18.8502431289        8.5615721037       39.9863729762  TIP3      2208            0.0000000000
     15201      2273  TIP3      OH2            16.6547348385        1.7182362969       39.7762697960  TIP3      2209            0.0000000000
     15202      2273  TIP3      H1             16.6794103095        2.6630040131       40.0307180209  TIP3      2209            0.0000000000
     15203      2273  TIP3      H2             15.7462994637        1.5629860037       39.4934779233  TIP3      2209            0.0000000000
     15204      2274  TIP3      OH2            17.4566858349       -3.5125605739       48.6096801028  TIP3      2210            0.0000000000
     15205      2274  TIP3      H1             17.3318368756       -3.4728417451       47.6333045413  TIP3      2210            0.0000000000
     15206      2274  TIP3      H2             17.0980507296       -4.3978884268       48.8027219240  TIP3      2210            0.0000000000
     15207      2275  TIP3      OH2            16.4383604184       10.4264760046       44.7225342817  TIP3      2211            0.0000000000
     15208      2275  TIP3      H1             15.5718939172       10.8432920903       44.6484023320  TIP3      2211            0.0000000000
     15209      2275  TIP3      H2             16.8829006490       10.8594846124       43.9800495821  TIP3      2211            0.0000000000
     15210      2276  TIP3      OH2            15.6062648165       13.0687802481       55.9708476650  TIP3      2212            0.0000000000
     15211      2276  TIP3      H1             16.2463503828       12.9165160084       56.7061700616  TIP3      2212            0.0000000000
     15212      2276  TIP3      H2             15.2526741003       12.1752213567       55.8258948263  TIP3      2212            0.0000000000
     15213      2277  TIP3      OH2            20.4060381695       12.0371436472       57.4990947318  TIP3      2213            0.0000000000
     15214      2277  TIP3      H1             21.0992558513       11.5010226047       57.9075656514  TIP3      2213            0.0000000000
     15215      2277  TIP3      H2             20.2876478320       11.6494606607       56.6125088011  TIP3      2213            0.0000000000
     15216      2278  TIP3      OH2            15.5111810621        6.8344615047       56.9922811120  TIP3      2214            0.0000000000
     15217      2278  TIP3      H1             15.6857819670        5.9228608875       56.6993402631  TIP3      2214            0.0000000000
     15218      2278  TIP3      H2             14.7981291965        7.0976664089       56.3861008111  TIP3      2214            0.0000000000
     15219      2279  TIP3      OH2            19.8359954814        7.1419822226       38.9861613914  TIP3      2215            0.0000000000
     15220      2279  TIP3      H1             20.0242269327        6.4360166848       39.6164610110  TIP3      2215            0.0000000000
     15221      2279  TIP3      H2             20.6290751451        7.0749966362       38.4172420920  TIP3      2215            0.0000000000
     15222      2280  TIP3      OH2            22.2194064901        6.8835725726       56.3854398790  TIP3      2216            0.0000000000
     15223      2280  TIP3      H1             21.8779899345        7.2199564855       55.5282501069  TIP3      2216            0.0000000000
     15224      2280  TIP3      H2             22.3034545504        5.9108713046       56.2132031963  TIP3      2216            0.0000000000
     15225      2281  TIP3      OH2            16.4956999411        4.0816773873       56.3774568813  TIP3      2217            0.0000000000
     15226      2281  TIP3      H1             16.9170024500        3.2193227819       56.2974114230  TIP3      2217            0.0000000000
     15227      2281  TIP3      H2             16.2671199173        4.1001406607       57.3207048553  TIP3      2217            0.0000000000
     15228      2282  TIP3      OH2            21.0164646340        5.1905004331       41.4517620270  TIP3      2218            0.0000000000
     15229      2282  TIP3      H1             20.4973976499        4.6352021535       42.0478124304  TIP3      2218            0.0000000000
     15230      2282  TIP3      H2             21.3749601978        4.5650760642       40.7889031680  TIP3      2218            0.0000000000
     15231      2283  TIP3      OH2            20.3364674022        3.0248320559       53.7317173910  TIP3      2219            0.0000000000
     15232      2283  TIP3      H1             19.7169240159        3.7364850732       53.9501860925  TIP3      2219            0.0000000000
     15233      2283  TIP3      H2             20.7466960044        3.3859030624       52.9241879946  TIP3      2219            0.0000000000
     15234      2284  TIP3      OH2            22.1790234531        3.4731302759       39.6316302559  TIP3      2220            0.0000000000
     15235      2284  TIP3      H1             21.9206012353        3.2496537156       38.7125143195  TIP3      2220            0.0000000000
     15236      2284  TIP3      H2             23.1416829865        3.4628134576       39.5754711171  TIP3      2220            0.0000000000
     15237      2285  TIP3      OH2            20.8229751308        0.3624484888       54.7063789016  TIP3      2221            0.0000000000
     15238      2285  TIP3      H1             20.9063785273       -0.3410104806       54.0290478889  TIP3      2221            0.0000000000
     15239      2285  TIP3      H2             20.7242352097        1.1857037068       54.1790443007  TIP3      2221            0.0000000000
     15240      2286  TIP3      OH2            21.1309434532       -1.4135988278       52.3208717048  TIP3      2222            0.0000000000
     15241      2286  TIP3      H1             21.6168317515       -0.7879365109       51.7268295542  TIP3      2222            0.0000000000
     15242      2286  TIP3      H2             20.2424819605       -1.2908149977       51.9374032993  TIP3      2222            0.0000000000
     15243      2287  TIP3      OH2            22.4639169591        4.0890626106       52.2420243259  TIP3      2223            0.0000000000
     15244      2287  TIP3      H1             23.3316528149        4.0806513672       51.8090753386  TIP3      2223            0.0000000000
     15245      2287  TIP3      H2             22.2166032180        5.0336286377       52.1330155738  TIP3      2223            0.0000000000
     15246      2288  TIP3      OH2            19.2476692173        1.6417131630       56.6788884903  TIP3      2224            0.0000000000
     15247      2288  TIP3      H1             18.4694307540        1.0774767391       56.5105434951  TIP3      2224            0.0000000000
     15248      2288  TIP3      H2             19.8919547873        1.2435332096       56.0633841189  TIP3      2224            0.0000000000
     15249      2289  TIP3      OH2            21.6583724101       -3.8699782934       52.8889711553  TIP3      2225            0.0000000000
     15250      2289  TIP3      H1             21.6107708900       -2.8989569425       52.6916217978  TIP3      2225            0.0000000000
     15251      2289  TIP3      H2             21.0444818332       -4.2166471003       52.2149012342  TIP3      2225            0.0000000000
     15252      2290  TIP3      OH2            22.6623841915        0.9406598930       56.8209815467  TIP3      2226            0.0000000000
     15253      2290  TIP3      H1             22.7696619210        0.1783187168       57.4128329027  TIP3      2226            0.0000000000
     15254      2290  TIP3      H2             22.2833953067        0.5233026207       56.0190793242  TIP3      2226            0.0000000000
     15255      2291  TIP3      OH2            17.2709565383       -0.4174142414       56.4355020030  TIP3      2227            0.0000000000
     15256      2291  TIP3      H1             17.5294998746       -1.1724924572       55.8811298273  TIP3      2227            0.0000000000
     15257      2291  TIP3      H2             17.2245948641       -0.8217973735       57.3250492020  TIP3      2227            0.0000000000
     15258      2292  TIP3      OH2            22.2042439420       -4.3960599815       55.4097442390  TIP3      2228            0.0000000000
     15259      2292  TIP3      H1             22.9363703974       -5.0316460879       55.3710535291  TIP3      2228            0.0000000000
     15260      2292  TIP3      H2             22.0323560673       -4.2402835598       54.4504700196  TIP3      2228            0.0000000000
     15261      2293  TIP3      OH2            22.5317455966       -2.8257096782       57.5626063221  TIP3      2229            0.0000000000
     15262      2293  TIP3      H1             22.4007038058       -3.3095676628       56.7099398095  TIP3      2229            0.0000000000
     15263      2293  TIP3      H2             21.9327202046       -2.0480162954       57.5010703986  TIP3      2229            0.0000000000
     15264      2294  TIP3      OH2            22.0465927929       14.1618171015       40.7334499669  TIP3      2230            0.0000000000
     15265      2294  TIP3      H1             23.0072641998       14.2194562028       40.7227182854  TIP3      2230            0.0000000000
     15266      2294  TIP3      H2             21.8907063163       14.7074724414       39.9439825412  TIP3      2230            0.0000000000
     15267      2295  TIP3      OH2            15.5434253410        8.6954812398       40.1933059932  TIP3      2231            0.0000000000
     15268      2295  TIP3      H1             16.5122967842        8.7997897712       40.3536227291  TIP3      2231            0.0000000000
     15269      2295  TIP3      H2             15.5747070083        8.0714100982       39.4274832922  TIP3      2231            0.0000000000
     15270      2296  TIP3      OH2            14.3509267665       14.0699766790       45.1313738875  TIP3      2232            0.0000000000
     15271      2296  TIP3      H1             13.6190268920       13.5808199860       44.6947621627  TIP3      2232            0.0000000000
     15272      2296  TIP3      H2             14.6264597515       13.4350823185       45.8180847995  TIP3      2232            0.0000000000
     15273      2297  TIP3      OH2            15.1769462142       12.2314688636       47.0343941495  TIP3      2233            0.0000000000
     15274      2297  TIP3      H1             14.8051958007       11.3653466450       47.2499540526  TIP3      2233            0.0000000000
     15275      2297  TIP3      H2             15.4071507220       12.5707858251       47.9162237656  TIP3      2233            0.0000000000
     15276      2298  TIP3      OH2            15.2333730104        5.3243102916       49.5317128396  TIP3      2234            0.0000000000
     15277      2298  TIP3      H1             15.3880553220        5.2246681700       48.5667132480  TIP3      2234            0.0000000000
     15278      2298  TIP3      H2             16.1284385207        5.1121671487       49.8683008940  TIP3      2234            0.0000000000
     15279      2299  TIP3      OH2            14.8517411169        0.6092133809       55.6921560294  TIP3      2235            0.0000000000
     15280      2299  TIP3      H1             15.7882239140        0.3913533738       55.8853765853  TIP3      2235            0.0000000000
     15281      2299  TIP3      H2             14.3944787687       -0.2293786457       55.9197049944  TIP3      2235            0.0000000000
     15282      2300  TIP3      OH2            16.0702043474       -1.0897993466       48.5234000826  TIP3      2236            0.0000000000
     15283      2300  TIP3      H1             16.5285573585       -1.9212660630       48.7482468177  TIP3      2236            0.0000000000
     15284      2300  TIP3      H2             16.6577980903       -0.4111125681       48.8817003324  TIP3      2236            0.0000000000
     15285      2301  TIP3      OH2            14.3371230223        1.9128151575       49.5580595094  TIP3      2237            0.0000000000
     15286      2301  TIP3      H1             14.8986500595        1.6391429755       48.8055030394  TIP3      2237            0.0000000000
     15287      2301  TIP3      H2             14.8294219098        2.7051897609       49.8202390143  TIP3      2237            0.0000000000
     15288      2302  TIP3      OH2            14.7074290550       -1.7929682978       43.6505585459  TIP3      2238            0.0000000000
     15289      2302  TIP3      H1             13.7611752907       -1.6815327706       43.4729580903  TIP3      2238            0.0000000000
     15290      2302  TIP3      H2             15.1001683650       -1.3297427503       42.8891901272  TIP3      2238            0.0000000000
     15291      2303  TIP3      OH2            14.5324168176       -3.2526175485       51.9055064099  TIP3      2239            0.0000000000
     15292      2303  TIP3      H1             14.0466481717       -3.1106903618       52.7261820583  TIP3      2239            0.0000000000
     15293      2303  TIP3      H2             14.2501979358       -2.4722733351       51.3744027700  TIP3      2239            0.0000000000
     15294      2304  TIP3      OH2            16.8962493018        9.9488205467       56.0500889090  TIP3      2240            0.0000000000
     15295      2304  TIP3      H1             16.0631133845       10.2479883300       55.6533172421  TIP3      2240            0.0000000000
     15296      2304  TIP3      H2             16.6775862460        9.9427110427       56.9880883153  TIP3      2240            0.0000000000
     15297      2305  TIP3      OH2            19.7563131756       11.0865040070       52.3893617625  TIP3      2241            0.0000000000
     15298      2305  TIP3      H1             19.4913428401       11.9658588502       52.0826941808  TIP3      2241            0.0000000000
     15299      2305  TIP3      H2             20.6918928315       11.1126086202       52.1002231568  TIP3      2241            0.0000000000
     15300      2306  TIP3      OH2            17.2029961832       14.2617326868       52.3191370549  TIP3      2242            0.0000000000
     15301      2306  TIP3      H1             16.4694494119       14.7810394753       51.9533571653  TIP3      2242            0.0000000000
     15302      2306  TIP3      H2             16.9303225344       14.0934134401       53.2331656374  TIP3      2242            0.0000000000
     15303      2307  TIP3      OH2            19.6692065387       13.7971682599       51.3667370271  TIP3      2243            0.0000000000
     15304      2307  TIP3      H1             18.8079690041       13.9745153544       51.8176669469  TIP3      2243            0.0000000000
     15305      2307  TIP3      H2             19.6001962267       14.4574064429       50.6537399897  TIP3      2243            0.0000000000
     15306      2308  TIP3      OH2            16.7092156735       12.9006528125       49.2871570493  TIP3      2244            0.0000000000
     15307      2308  TIP3      H1             16.6212210432       12.4180154456       50.1350653758  TIP3      2244            0.0000000000
     15308      2308  TIP3      H2             17.5185834077       12.5074632771       48.9006030635  TIP3      2244            0.0000000000
     15309      2309  TIP3      OH2            18.7744348343       11.6306015684       47.9282919962  TIP3      2245            0.0000000000
     15310      2309  TIP3      H1             18.6372264098       10.6986135773       48.1845909694  TIP3      2245            0.0000000000
     15311      2309  TIP3      H2             19.6306646909       11.8014606997       48.3645222380  TIP3      2245            0.0000000000
     15312      2310  TIP3      OH2            21.3936525494       12.1023019713       48.8135384749  TIP3      2246            0.0000000000
     15313      2310  TIP3      H1             21.5055416064       11.1678483208       48.5660263301  TIP3      2246            0.0000000000
     15314      2310  TIP3      H2             21.3545014967       12.0665254879       49.7809870373  TIP3      2246            0.0000000000
     15315      2311  TIP3      OH2            17.2201000793       -3.6353316809       45.8175040890  TIP3      2247            0.0000000000
     15316      2311  TIP3      H1             16.4085783194       -3.7813419061       45.2924279318  TIP3      2247            0.0000000000
     15317      2311  TIP3      H2             17.6190419534       -4.5230896929       45.7447599852  TIP3      2247            0.0000000000
     15318      2312  TIP3      OH2            15.9685718457       -3.8999952300       41.5410718501  TIP3      2248            0.0000000000
     15319      2312  TIP3      H1             16.4709297971       -3.2535329941       41.0089984295  TIP3      2248            0.0000000000
     15320      2312  TIP3      H2             15.3915771318       -3.3137115143       42.0596417165  TIP3      2248            0.0000000000
     15321      2313  TIP3      OH2            21.4977763183       -3.5273049857       45.6898399456  TIP3      2249            0.0000000000
     15322      2313  TIP3      H1             22.4415632649       -3.4042495933       45.5081338036  TIP3      2249            0.0000000000
     15323      2313  TIP3      H2             21.5396387104       -3.8703298638       46.5893261214  TIP3      2249            0.0000000000
     15324      2314  TIP3      OH2            15.8343847580       12.0632081903       42.6023866708  TIP3      2250            0.0000000000
     15325      2314  TIP3      H1             15.1933202610       12.0373689810       41.8697111587  TIP3      2250            0.0000000000
     15326      2314  TIP3      H2             15.8481912508       13.0248150035       42.7324289306  TIP3      2250            0.0000000000
     15327      2315  TIP3      OH2            17.7681711096       -1.9545541389       40.0501833549  TIP3      2251            0.0000000000
     15328      2315  TIP3      H1             18.3258701731       -2.5247467001       39.4987475675  TIP3      2251            0.0000000000
     15329      2315  TIP3      H2             18.4372107912       -1.5843307140       40.6598051378  TIP3      2251            0.0000000000
     15330      2316  TIP3      OH2            22.4136543540       -1.5457410524       42.0640173687  TIP3      2252            0.0000000000
     15331      2316  TIP3      H1             22.7580542576       -2.2664672412       42.6141409480  TIP3      2252            0.0000000000
     15332      2316  TIP3      H2             22.6775729678       -0.7795946477       42.5860808045  TIP3      2252            0.0000000000
     15333      2317  TIP3      OH2            17.0307762798       -3.0961075107       55.2224476884  TIP3      2253            0.0000000000
     15334      2317  TIP3      H1             16.6680492436       -3.8941513934       55.6480552065  TIP3      2253            0.0000000000
     15335      2317  TIP3      H2             17.9327616254       -3.1336476932       55.6278160165  TIP3      2253            0.0000000000
     15336      2318  TIP3      OH2            19.0125850386       -3.7538555170       56.8571808831  TIP3      2254            0.0000000000
     15337      2318  TIP3      H1             19.9209834050       -4.0486287445       56.6693883373  TIP3      2254            0.0000000000
     15338      2318  TIP3      H2             18.6926470679       -4.5397404424       57.3400736887  TIP3      2254            0.0000000000
     15339      2319  TIP3      OH2            17.6475236868       13.0645263769       39.5156457660  TIP3      2255            0.0000000000
     15340      2319  TIP3      H1             17.3763400055       13.3186942550       40.4092005473  TIP3      2255            0.0000000000
     15341      2319  TIP3      H2             18.4348129391       12.5052041687       39.6709228944  TIP3      2255            0.0000000000
     15342      2320  TIP3      OH2           -20.2356738413       23.1498447711       50.7492121026  TIP3      2256            0.0000000000
     15343      2320  TIP3      H1            -20.1305951574       22.5202441413       51.4803183648  TIP3      2256            0.0000000000
     15344      2320  TIP3      H2            -19.6322300903       23.8727836584       50.9486974675  TIP3      2256            0.0000000000
     15345      2321  TIP3      OH2           -22.6076875733       21.3861782004       44.5969764198  TIP3      2257            0.0000000000
     15346      2321  TIP3      H1            -23.0966436546       22.2036137484       44.6498774017  TIP3      2257            0.0000000000
     15347      2321  TIP3      H2            -23.2460208152       20.7455442765       44.2921939287  TIP3      2257            0.0000000000
     15348      2322  TIP3      OH2            -5.6392267252       17.6827506463       50.3319650981  TIP3      2258            0.0000000000
     15349      2322  TIP3      H1             -5.4700698271       18.2484206807       51.1166573289  TIP3      2258            0.0000000000
     15350      2322  TIP3      H2             -5.0403870776       18.1107342375       49.7018891730  TIP3      2258            0.0000000000
     15351      2323  TIP3      OH2           -11.0476503869       20.4946898722       49.9659439533  TIP3      2259            0.0000000000
     15352      2323  TIP3      H1            -10.8796238072       19.5382277617       49.9399386842  TIP3      2259            0.0000000000
     15353      2323  TIP3      H2            -11.1502551542       20.7019556033       49.0217085738  TIP3      2259            0.0000000000
     15354      2324  TIP3      OH2           -17.9674476378       18.5994994946       47.1834229230  TIP3      2260            0.0000000000
     15355      2324  TIP3      H1            -17.8375497902       19.4186109923       46.6647790962  TIP3      2260            0.0000000000
     15356      2324  TIP3      H2            -18.3322425869       18.0232574547       46.4737862889  TIP3      2260            0.0000000000
     15357      2325  TIP3      OH2           -10.1959681971       18.6614717481       45.5389010299  TIP3      2261            0.0000000000
     15358      2325  TIP3      H1             -9.5752208370       18.3311866883       46.2277867850  TIP3      2261            0.0000000000
     15359      2325  TIP3      H2             -9.6017602575       19.2486186775       45.0506332900  TIP3      2261            0.0000000000
     15360      2326  TIP3      OH2           -21.2289660032       20.9599985362       47.8219953825  TIP3      2262            0.0000000000
     15361      2326  TIP3      H1            -20.6078664008       20.4227944123       48.3400971612  TIP3      2262            0.0000000000
     15362      2326  TIP3      H2            -21.1513692459       20.5703010171       46.9407674445  TIP3      2262            0.0000000000
     15363      2327  TIP3      OH2           -16.2300806552       22.3229480689       47.2872376942  TIP3      2263            0.0000000000
     15364      2327  TIP3      H1            -15.4873513235       21.7563803611       47.5605109203  TIP3      2263            0.0000000000
     15365      2327  TIP3      H2            -16.6935899974       21.7727254044       46.6222349108  TIP3      2263            0.0000000000
     15366      2328  TIP3      OH2            -5.2572809393       19.0496905684       52.6236591016  TIP3      2264            0.0000000000
     15367      2328  TIP3      H1             -5.7762568464       19.8780732905       52.5196049082  TIP3      2264            0.0000000000
     15368      2328  TIP3      H2             -5.1824344935       19.0069153167       53.5888063044  TIP3      2264            0.0000000000
     15369      2329  TIP3      OH2           -18.9970905142       17.4433522234       51.1910128976  TIP3      2265            0.0000000000
     15370      2329  TIP3      H1            -19.2936614109       18.0256190367       50.4631635388  TIP3      2265            0.0000000000
     15371      2329  TIP3      H2            -19.6708098224       17.6781038936       51.8761660142  TIP3      2265            0.0000000000
     15372      2330  TIP3      OH2            -8.3643380045       18.0189054384       47.5497323925  TIP3      2266            0.0000000000
     15373      2330  TIP3      H1             -8.5889070694       17.2503190985       48.0792858127  TIP3      2266            0.0000000000
     15374      2330  TIP3      H2             -7.7155546470       18.4731699175       48.1194033782  TIP3      2266            0.0000000000
     15375      2331  TIP3      OH2           -19.4878928536       19.3441889493       49.2811996048  TIP3      2267            0.0000000000
     15376      2331  TIP3      H1            -18.8280871367       19.9961683681       49.5901885612  TIP3      2267            0.0000000000
     15377      2331  TIP3      H2            -18.9939619392       18.9543669244       48.5143768501  TIP3      2267            0.0000000000
     15378      2332  TIP3      OH2            -8.0706963310       16.6801150794       51.1971889340  TIP3      2268            0.0000000000
     15379      2332  TIP3      H1             -8.7830150169       17.3247143048       51.0777988500  TIP3      2268            0.0000000000
     15380      2332  TIP3      H2             -7.3394326605       17.0949719914       50.6917992233  TIP3      2268            0.0000000000
     15381      2333  TIP3      OH2           -15.1355415504       14.8302378138       48.6625817604  TIP3      2269            0.0000000000
     15382      2333  TIP3      H1            -15.3039478119       13.8723480401       48.5792637179  TIP3      2269            0.0000000000
     15383      2333  TIP3      H2            -16.0045303494       15.1560131122       48.9917671616  TIP3      2269            0.0000000000
     15384      2334  TIP3      OH2           -12.7573156807       22.0858172798       40.1273923979  TIP3      2270            0.0000000000
     15385      2334  TIP3      H1            -12.0571894073       22.1939836103       40.8066458610  TIP3      2270            0.0000000000
     15386      2334  TIP3      H2            -12.3892275880       21.3940879603       39.5754155110  TIP3      2270            0.0000000000
     15387      2335  TIP3      OH2            -5.7514075949       22.9348096900       51.2137353825  TIP3      2271            0.0000000000
     15388      2335  TIP3      H1             -6.1312290904       23.8066331846       51.3591291858  TIP3      2271            0.0000000000
     15389      2335  TIP3      H2             -4.9232686342       23.1971583428       50.7765529232  TIP3      2271            0.0000000000
     15390      2336  TIP3      OH2            -9.4211839959       22.0397406405       53.2227423607  TIP3      2272            0.0000000000
     15391      2336  TIP3      H1             -9.4394506504       22.8868904193       53.6756636595  TIP3      2272            0.0000000000
     15392      2336  TIP3      H2            -10.0326541590       22.2435503145       52.4767835456  TIP3      2272            0.0000000000
     15393      2337  TIP3      OH2           -17.1214901825      -23.8402257734       49.8660665682  TIP3      2273            0.0000000000
     15394      2337  TIP3      H1            -16.9928206821      -23.6538682377       48.9067421201  TIP3      2273            0.0000000000
     15395      2337  TIP3      H2            -17.2294577138      -22.9191177927       50.1534386306  TIP3      2273            0.0000000000
     15396      2338  TIP3      OH2           -10.4876949016       22.8149321897       41.4986651287  TIP3      2274            0.0000000000
     15397      2338  TIP3      H1            -10.1229486842       23.0140576196       42.3763615115  TIP3      2274            0.0000000000
     15398      2338  TIP3      H2            -10.1368530315       23.5384420650       40.9729418495  TIP3      2274            0.0000000000
     15399      2339  TIP3      OH2            -6.7189671806       14.7452604967       41.7132394796  TIP3      2275            0.0000000000
     15400      2339  TIP3      H1             -7.6781330274       14.8350043023       41.9094044055  TIP3      2275            0.0000000000
     15401      2339  TIP3      H2             -6.5354752673       15.5818731781       41.2437606517  TIP3      2275            0.0000000000
     15402      2340  TIP3      OH2            -7.5587788936       20.8620928539       55.4441860697  TIP3      2276            0.0000000000
     15403      2340  TIP3      H1             -7.9493952232       21.3309693142       54.6940321848  TIP3      2276            0.0000000000
     15404      2340  TIP3      H2             -7.5754961947       19.9379096301       55.1459023485  TIP3      2276            0.0000000000
     15405      2341  TIP3      OH2           -17.6811535436       15.7666487592       49.3753572755  TIP3      2277            0.0000000000
     15406      2341  TIP3      H1            -18.5924883068       15.5954791436       49.0453291890  TIP3      2277            0.0000000000
     15407      2341  TIP3      H2            -17.8621140261       16.5483747016       49.9239737728  TIP3      2277            0.0000000000
     15408      2342  TIP3      OH2           -13.0428190497       15.3638006880       52.7668978437  TIP3      2278            0.0000000000
     15409      2342  TIP3      H1            -12.6639991254       14.9411127480       53.5609165374  TIP3      2278            0.0000000000
     15410      2342  TIP3      H2            -14.0186205091       15.2839688765       52.9148048383  TIP3      2278            0.0000000000
     15411      2343  TIP3      OH2            -9.8110716603       19.2879979683       53.6915198295  TIP3      2279            0.0000000000
     15412      2343  TIP3      H1            -10.3501486302       19.0469269942       54.4857634909  TIP3      2279            0.0000000000
     15413      2343  TIP3      H2            -10.0311433740       20.2048783262       53.4735717461  TIP3      2279            0.0000000000
     15414      2344  TIP3      OH2           -13.3937009627       17.9329526797       40.0989344871  TIP3      2280            0.0000000000
     15415      2344  TIP3      H1            -13.7525903269       17.9225944985       41.0003851011  TIP3      2280            0.0000000000
     15416      2344  TIP3      H2            -13.7581172362       17.0897648550       39.7747089620  TIP3      2280            0.0000000000
     15417      2345  TIP3      OH2           -17.6454113322       20.5791490873       50.8027693668  TIP3      2281            0.0000000000
     15418      2345  TIP3      H1            -18.4220979473       20.7138084771       51.3690203904  TIP3      2281            0.0000000000
     15419      2345  TIP3      H2            -17.6046506066       21.4295848328       50.2966942001  TIP3      2281            0.0000000000
     15420      2346  TIP3      OH2           -17.6487800562       20.7368379263       45.5299315568  TIP3      2282            0.0000000000
     15421      2346  TIP3      H1            -18.6090784694       20.5606393616       45.3775702374  TIP3      2282            0.0000000000
     15422      2346  TIP3      H2            -17.3115726650       20.4938400141       44.6484904599  TIP3      2282            0.0000000000
     15423      2347  TIP3      OH2           -11.9907720222       21.4099407343       44.3934162530  TIP3      2283            0.0000000000
     15424      2347  TIP3      H1            -12.6187720824       22.0198891073       43.9832958522  TIP3      2283            0.0000000000
     15425      2347  TIP3      H2            -11.4659356102       21.0782907905       43.6382643771  TIP3      2283            0.0000000000
     15426      2348  TIP3      OH2           -12.9706199907       21.5416794140       55.7067966129  TIP3      2284            0.0000000000
     15427      2348  TIP3      H1            -13.5698308355       20.8102271686       56.0116805437  TIP3      2284            0.0000000000
     15428      2348  TIP3      H2            -12.1974097247       21.3784202775       56.2746874292  TIP3      2284            0.0000000000
     15429      2349  TIP3      OH2           -11.1589054979       20.7630836800       47.1778292708  TIP3      2285            0.0000000000
     15430      2349  TIP3      H1            -11.4140851702       21.2744567331       46.3928604305  TIP3      2285            0.0000000000
     15431      2349  TIP3      H2            -10.9957611534       19.8940730701       46.7579348824  TIP3      2285            0.0000000000
     15432      2350  TIP3      OH2           -20.0369055187       21.0191960652       52.4137093946  TIP3      2286            0.0000000000
     15433      2350  TIP3      H1            -20.0280023286       21.3255934771       53.3282619439  TIP3      2286            0.0000000000
     15434      2350  TIP3      H2            -20.3930480819       20.1188068702       52.5203967164  TIP3      2286            0.0000000000
     15435      2351  TIP3      OH2           -16.6590745985       18.3353586246       39.1783800450  TIP3      2287            0.0000000000
     15436      2351  TIP3      H1            -17.0803119897       17.9808769883       39.9871559318  TIP3      2287            0.0000000000
     15437      2351  TIP3      H2            -17.3796530482       18.7770119026       38.7193641603  TIP3      2287            0.0000000000
     15438      2352  TIP3      OH2           -22.1097942406       18.1720446454       46.1121807288  TIP3      2288            0.0000000000
     15439      2352  TIP3      H1            -22.3844065486       17.9279610060       47.0082374966  TIP3      2288            0.0000000000
     15440      2352  TIP3      H2            -22.7280677450       17.6452078760       45.5907031000  TIP3      2288            0.0000000000
     15441      2353  TIP3      OH2           -22.0226616783       18.8802780165       41.8209351331  TIP3      2289            0.0000000000
     15442      2353  TIP3      H1            -21.5110484810       19.3406530810       41.1151621974  TIP3      2289            0.0000000000
     15443      2353  TIP3      H2            -22.7647286178       19.4716709554       41.9001722923  TIP3      2289            0.0000000000
     15444      2354  TIP3      OH2           -11.8162474378       22.3214018035       51.8357943891  TIP3      2290            0.0000000000
     15445      2354  TIP3      H1            -11.5509416645       21.7617834691       51.0763864419  TIP3      2290            0.0000000000
     15446      2354  TIP3      H2            -12.4036041866       21.7354305727       52.3482644589  TIP3      2290            0.0000000000
     15447      2355  TIP3      OH2           -15.0764650361       18.3590306335       46.5377332135  TIP3      2291            0.0000000000
     15448      2355  TIP3      H1            -16.0102856130       18.3759443626       46.8170461370  TIP3      2291            0.0000000000
     15449      2355  TIP3      H2            -14.6256107504       18.2127128738       47.3836771797  TIP3      2291            0.0000000000
     15450      2356  TIP3      OH2           -20.1322618190       19.9334281603       45.3748442240  TIP3      2292            0.0000000000
     15451      2356  TIP3      H1            -21.0733552332       20.0554225930       45.1332503493  TIP3      2292            0.0000000000
     15452      2356  TIP3      H2            -19.9936982144       19.0236920005       45.0467865085  TIP3      2292            0.0000000000
     15453      2357  TIP3      OH2           -16.6505848444       19.9756568310       43.0254335497  TIP3      2293            0.0000000000
     15454      2357  TIP3      H1            -15.6964520222       20.0745806257       43.1884125903  TIP3      2293            0.0000000000
     15455      2357  TIP3      H2            -16.8622321899       20.6552969674       42.3555944285  TIP3      2293            0.0000000000
     15456      2358  TIP3      OH2           -10.6770252634       17.6129841471       49.7771066904  TIP3      2294            0.0000000000
     15457      2358  TIP3      H1            -11.3525776814       17.6370127205       50.4918124151  TIP3      2294            0.0000000000
     15458      2358  TIP3      H2            -11.1950046407       17.3369461615       49.0078216673  TIP3      2294            0.0000000000
     15459      2359  TIP3      OH2           -17.9990933263       21.1494643414       40.5805459349  TIP3      2295            0.0000000000
     15460      2359  TIP3      H1            -18.4448252997       20.7407071850       39.8314518374  TIP3      2295            0.0000000000
     15461      2359  TIP3      H2            -17.1221707370       21.3658114025       40.2086759257  TIP3      2295            0.0000000000
     15462      2360  TIP3      OH2           -13.9198635731       21.0766543896       48.3783452757  TIP3      2296            0.0000000000
     15463      2360  TIP3      H1            -13.2032699263       20.6074346938       47.9379788376  TIP3      2296            0.0000000000
     15464      2360  TIP3      H2            -13.9849936852       20.6173543674       49.2261353562  TIP3      2296            0.0000000000
     15465      2361  TIP3      OH2           -18.8274260580       17.2621255946       44.8722593172  TIP3      2297            0.0000000000
     15466      2361  TIP3      H1            -19.1402783941       16.3425305301       44.9027040211  TIP3      2297            0.0000000000
     15467      2361  TIP3      H2            -18.0233862939       17.1787766053       44.3440681051  TIP3      2297            0.0000000000
     15468      2362  TIP3      OH2           -15.1608388378       19.4516818355       50.8363046226  TIP3      2298            0.0000000000
     15469      2362  TIP3      H1            -15.9831975134       19.9755434948       50.9204989631  TIP3      2298            0.0000000000
     15470      2362  TIP3      H2            -14.6008579897       19.7970581770       51.5519472300  TIP3      2298            0.0000000000
     15471      2363  TIP3      OH2           -10.7332765369       18.4997222578       40.7438311876  TIP3      2299            0.0000000000
     15472      2363  TIP3      H1            -11.6842427803       18.6430018460       40.5797082521  TIP3      2299            0.0000000000
     15473      2363  TIP3      H2            -10.4095697480       19.3613697812       41.0716530062  TIP3      2299            0.0000000000
     15474      2364  TIP3      OH2           -10.0353785998       20.4503620713       42.4117801677  TIP3      2300            0.0000000000
     15475      2364  TIP3      H1             -9.1406342034       20.2189559203       42.7520988256  TIP3      2300            0.0000000000
     15476      2364  TIP3      H2             -9.8710437405       21.2142280835       41.8311384129  TIP3      2300            0.0000000000
     15477      2365  TIP3      OH2           -15.5652561011       22.0073899021       56.1816457944  TIP3      2301            0.0000000000
     15478      2365  TIP3      H1            -15.9020167003       22.2999512180       55.3209445897  TIP3      2301            0.0000000000
     15479      2365  TIP3      H2            -14.6621579401       22.3787747929       56.2352184173  TIP3      2301            0.0000000000
     15480      2366  TIP3      OH2            -5.1836791632       20.5280727955       42.1618289389  TIP3      2302            0.0000000000
     15481      2366  TIP3      H1             -5.6865616916       20.2361674130       41.3747682415  TIP3      2302            0.0000000000
     15482      2366  TIP3      H2             -5.1095129744       21.4701057041       41.9376806680  TIP3      2302            0.0000000000
     15483      2367  TIP3      OH2           -21.3617596590      -23.5191542788       39.9343779731  TIP3      2303            0.0000000000
     15484      2367  TIP3      H1            -20.6819538277      -23.1203041061       40.4988727145  TIP3      2303            0.0000000000
     15485      2367  TIP3      H2            -22.1394099969      -23.2417044040       40.4526799966  TIP3      2303            0.0000000000
     15486      2368  TIP3      OH2           -20.8002321151       18.1970551398       53.0799415687  TIP3      2304            0.0000000000
     15487      2368  TIP3      H1            -21.6865107012       18.5760555232       53.2618515315  TIP3      2304            0.0000000000
     15488      2368  TIP3      H2            -20.8789054511       17.3993572607       53.6284682788  TIP3      2304            0.0000000000
     15489      2369  TIP3      OH2           -12.1033362070       17.9561742601       52.1653405588  TIP3      2305            0.0000000000
     15490      2369  TIP3      H1            -11.3931074461       18.0836759018       52.8001032227  TIP3      2305            0.0000000000
     15491      2369  TIP3      H2            -12.4599452447       17.0772692096       52.3994102123  TIP3      2305            0.0000000000
     15492      2370  TIP3      OH2           -11.3686464280       17.5262968106       43.2417988283  TIP3      2306            0.0000000000
     15493      2370  TIP3      H1            -11.1313614083       17.9439392830       42.3917625342  TIP3      2306            0.0000000000
     15494      2370  TIP3      H2            -10.7894561447       17.9964482748       43.8619482823  TIP3      2306            0.0000000000
     15495      2371  TIP3      OH2           -14.1144013221       19.2653568749       44.0377500116  TIP3      2307            0.0000000000
     15496      2371  TIP3      H1            -13.3825046805       19.8929072595       44.0992867570  TIP3      2307            0.0000000000
     15497      2371  TIP3      H2            -14.4304272024       19.1706405505       44.9596358736  TIP3      2307            0.0000000000
     15498      2372  TIP3      OH2           -13.5559701009       20.3528017121       53.2922856463  TIP3      2308            0.0000000000
     15499      2372  TIP3      H1            -13.4930221232       20.8396163595       54.1311337779  TIP3      2308            0.0000000000
     15500      2372  TIP3      H2            -12.9223855033       19.6221192100       53.3587841066  TIP3      2308            0.0000000000
     15501      2373  TIP3      OH2           -13.2976345603       16.3244164417       44.8809996752  TIP3      2309            0.0000000000
     15502      2373  TIP3      H1            -13.6227850660       16.9657334856       45.5352255347  TIP3      2309            0.0000000000
     15503      2373  TIP3      H2            -12.5858078218       16.8753772248       44.4685460853  TIP3      2309            0.0000000000
     15504      2374  TIP3      OH2           -17.5993504574       17.4422842411       41.6122954937  TIP3      2310            0.0000000000
     15505      2374  TIP3      H1            -17.6737999280       18.3285498959       42.0210457264  TIP3      2310            0.0000000000
     15506      2374  TIP3      H2            -16.6996056648       17.1908204802       41.9030993982  TIP3      2310            0.0000000000
     15507      2375  TIP3      OH2            -7.4308837882       18.1388380062       54.0816672833  TIP3      2311            0.0000000000
     15508      2375  TIP3      H1             -8.3531550349       18.4619660240       53.9510693331  TIP3      2311            0.0000000000
     15509      2375  TIP3      H2             -7.1054929824       18.1620611049       53.1673363276  TIP3      2311            0.0000000000
     15510      2376  TIP3      OH2            -8.7948969308       21.7922481369       47.9626855292  TIP3      2312            0.0000000000
     15511      2376  TIP3      H1             -9.6884667596       21.4312784624       47.8692134740  TIP3      2312            0.0000000000
     15512      2376  TIP3      H2             -8.3764352772       21.1857191956       48.6102791875  TIP3      2312            0.0000000000
     15513      2377  TIP3      OH2           -21.1281850663       20.5095944725       39.7528898244  TIP3      2313            0.0000000000
     15514      2377  TIP3      H1            -21.1001093274       21.4535350077       39.9835131290  TIP3      2313            0.0000000000
     15515      2377  TIP3      H2            -22.0190661007       20.3694528244       39.4126607794  TIP3      2313            0.0000000000
     15516      2378  TIP3      OH2           -20.1984678009       15.3171805421       48.5864448404  TIP3      2314            0.0000000000
     15517      2378  TIP3      H1            -20.3710378857       15.3782045031       47.6183783289  TIP3      2314            0.0000000000
     15518      2378  TIP3      H2            -20.6816072276       14.4888604930       48.7816132089  TIP3      2314            0.0000000000
     15519      2379  TIP3      OH2           -21.4911765948       22.6270929054       56.3003800791  TIP3      2315            0.0000000000
     15520      2379  TIP3      H1            -20.7950129147       21.9541240437       56.3485132569  TIP3      2315            0.0000000000
     15521      2379  TIP3      H2            -21.4827911454       22.9580483060       57.2351141774  TIP3      2315            0.0000000000
     15522      2380  TIP3      OH2           -17.3012973144       21.9472029792       53.8119046503  TIP3      2316            0.0000000000
     15523      2380  TIP3      H1            -17.9613865629       22.6268054266       54.0007036682  TIP3      2316            0.0000000000
     15524      2380  TIP3      H2            -16.9776550475       22.1701240735       52.9249821257  TIP3      2316            0.0000000000
     15525      2381  TIP3      OH2           -15.5675076940       22.1810831018       39.8322660347  TIP3      2317            0.0000000000
     15526      2381  TIP3      H1            -15.6963429633       22.1205765133       38.8600456434  TIP3      2317            0.0000000000
     15527      2381  TIP3      H2            -14.6027310148       22.3433238700       39.8572961070  TIP3      2317            0.0000000000
     15528      2382  TIP3      OH2           -16.9236619179       19.1833148394       54.7477982579  TIP3      2318            0.0000000000
     15529      2382  TIP3      H1            -16.8238907073       18.4789029270       54.0858353252  TIP3      2318            0.0000000000
     15530      2382  TIP3      H2            -17.0075100354       19.9879580937       54.2111147243  TIP3      2318            0.0000000000
     15531      2383  TIP3      OH2           -16.5109376727       17.5521063320       52.3003752054  TIP3      2319            0.0000000000
     15532      2383  TIP3      H1            -15.9956669817       18.0600420111       51.6296593382  TIP3      2319            0.0000000000
     15533      2383  TIP3      H2            -17.4202867354       17.6116522140       51.9303083473  TIP3      2319            0.0000000000
     15534      2384  TIP3      OH2           -14.7408308390      -24.0530405690       52.3254867878  TIP3      2320            0.0000000000
     15535      2384  TIP3      H1            -13.9113276268      -24.0198579570       51.8262938251  TIP3      2320            0.0000000000
     15536      2384  TIP3      H2            -15.0996960645      -23.1827091718       52.1809672586  TIP3      2320            0.0000000000
     15537      2385  TIP3      OH2           -10.5740095113       20.8526942849       57.5162860680  TIP3      2321            0.0000000000
     15538      2385  TIP3      H1            -10.4254475435       19.9010528543       57.4028596708  TIP3      2321            0.0000000000
     15539      2385  TIP3      H2             -9.6616251914       21.1827576511       57.4942511128  TIP3      2321            0.0000000000
     15540      2386  TIP3      OH2           -18.5675039478       20.5619870355       56.6394339468  TIP3      2322            0.0000000000
     15541      2386  TIP3      H1            -19.2369542747       19.8457935536       56.5567124181  TIP3      2322            0.0000000000
     15542      2386  TIP3      H2            -17.8400858136       20.2018326021       56.0919885242  TIP3      2322            0.0000000000
     15543      2387  TIP3      OH2           -15.7227351513       15.0624324988       52.6936513232  TIP3      2323            0.0000000000
     15544      2387  TIP3      H1            -15.9482506392       16.0208286267       52.6017230552  TIP3      2323            0.0000000000
     15545      2387  TIP3      H2            -16.4679720655       14.6784379744       52.1949806035  TIP3      2323            0.0000000000
     15546      2388  TIP3      OH2           -14.4115340760       19.3524971822       56.3510897236  TIP3      2324            0.0000000000
     15547      2388  TIP3      H1            -14.7882177099       19.1939755051       57.2410580576  TIP3      2324            0.0000000000
     15548      2388  TIP3      H2            -15.2009103571       19.1771514191       55.8104000822  TIP3      2324            0.0000000000
     15549      2389  TIP3      OH2           -11.7209982740       18.5927139668       55.4912696209  TIP3      2325            0.0000000000
     15550      2389  TIP3      H1            -12.6898210498       18.6380756251       55.5684893270  TIP3      2325            0.0000000000
     15551      2389  TIP3      H2            -11.5059891788       17.9280270540       56.1758041064  TIP3      2325            0.0000000000
     15552      2390  TIP3      OH2           -10.1969446125       17.1746149874       57.3189162583  TIP3      2326            0.0000000000
     15553      2390  TIP3      H1            -10.2050706356       16.1942088273       57.3604092158  TIP3      2326            0.0000000000
     15554      2390  TIP3      H2            -10.3897355266       17.4661250850       58.2317757745  TIP3      2326            0.0000000000
     15555      2391  TIP3      OH2           -20.2068315180       18.4417979147       56.5192694057  TIP3      2327            0.0000000000
     15556      2391  TIP3      H1            -20.1471217902       17.7002166765       55.8896929189  TIP3      2327            0.0000000000
     15557      2391  TIP3      H2            -20.4784305783       17.9721091847       57.3328004329  TIP3      2327            0.0000000000
     15558      2392  TIP3      OH2           -15.5217724296       14.4931929669       55.4056995449  TIP3      2328            0.0000000000
     15559      2392  TIP3      H1            -14.8560721933       13.7778003721       55.4088469940  TIP3      2328            0.0000000000
     15560      2392  TIP3      H2            -15.6460667103       14.5860057042       54.4396459874  TIP3      2328            0.0000000000
     15561      2393  TIP3      OH2           -15.1682915708       16.0740557229       57.5650780568  TIP3      2329            0.0000000000
     15562      2393  TIP3      H1            -15.3534927471       15.5571567356       56.7442821085  TIP3      2329            0.0000000000
     15563      2393  TIP3      H2            -15.7512390993       16.8546892469       57.4526495655  TIP3      2329            0.0000000000
     15564      2394  TIP3      OH2            -6.6747351349       20.6013569298       39.7808865089  TIP3      2330            0.0000000000
     15565      2394  TIP3      H1             -6.5403093280       21.2622799764       39.0873247652  TIP3      2330            0.0000000000
     15566      2394  TIP3      H2             -6.7968689496       19.7734559635       39.2685659272  TIP3      2330            0.0000000000
     15567      2395  TIP3      OH2            -7.4831333180       22.0573619496       45.3938101693  TIP3      2331            0.0000000000
     15568      2395  TIP3      H1             -7.6484942363       21.1057733877       45.3828477140  TIP3      2331            0.0000000000
     15569      2395  TIP3      H2             -7.7500929649       22.2854707110       46.2974457423  TIP3      2331            0.0000000000
     15570      2396  TIP3      OH2            -5.1275983772       21.9657605127       55.8306568785  TIP3      2332            0.0000000000
     15571      2396  TIP3      H1             -5.9895435369       21.5559899566       55.6534917688  TIP3      2332            0.0000000000
     15572      2396  TIP3      H2             -4.5429272131       21.2017517377       55.6774001731  TIP3      2332            0.0000000000
     15573      2397  TIP3      OH2            -7.3804267080       18.1335662113       38.9149201099  TIP3      2333            0.0000000000
     15574      2397  TIP3      H1             -6.8014273348       17.6782096171       39.5545093405  TIP3      2333            0.0000000000
     15575      2397  TIP3      H2             -8.2429850438       17.7110141414       39.0474435572  TIP3      2333            0.0000000000
     15576      2398  TIP3      OH2            -7.8789787141       19.7145854417       43.9102315051  TIP3      2334            0.0000000000
     15577      2398  TIP3      H1             -7.5804390350       18.7862672880       44.0542159264  TIP3      2334            0.0000000000
     15578      2398  TIP3      H2             -7.0433833650       20.0882464864       43.5946302877  TIP3      2334            0.0000000000
     15579      2399  TIP3      OH2            -7.1560301005       20.1078364007       49.4038657008  TIP3      2335            0.0000000000
     15580      2399  TIP3      H1             -6.2172038476       20.4010395167       49.3303171907  TIP3      2335            0.0000000000
     15581      2399  TIP3      H2             -7.3660294687       20.4052740356       50.2919369382  TIP3      2335            0.0000000000
     15582      2400  TIP3      OH2            -7.1277712945       20.9379121898       52.2847638425  TIP3      2336            0.0000000000
     15583      2400  TIP3      H1             -8.0462612312       21.2351388113       52.4486105029  TIP3      2336            0.0000000000
     15584      2400  TIP3      H2             -6.6966559304       21.7146161294       51.8383979071  TIP3      2336            0.0000000000
     15585      2401  TIP3      OH2           -22.3237907209       19.1744990458       54.9646073313  TIP3      2337            0.0000000000
     15586      2401  TIP3      H1            -21.6769670659       19.3741471442       55.6701338689  TIP3      2337            0.0000000000
     15587      2401  TIP3      H2            -23.0277119612       18.8882425330       55.5790051844  TIP3      2337            0.0000000000
     15588      2402  TIP3      OH2            -4.8185173460       15.0214872277       57.4623096847  TIP3      2338            0.0000000000
     15589      2402  TIP3      H1             -4.4715448741       14.3470321813       56.8544324395  TIP3      2338            0.0000000000
     15590      2402  TIP3      H2             -4.7644365736       15.8159331394       56.8926987206  TIP3      2338            0.0000000000
     15591      2403  TIP3      OH2            -7.1548508418       16.9712557920       43.9523806722  TIP3      2339            0.0000000000
     15592      2403  TIP3      H1             -6.9038286943       16.5460126753       44.8058924700  TIP3      2339            0.0000000000
     15593      2403  TIP3      H2             -7.7226458891       16.2967647463       43.5282789753  TIP3      2339            0.0000000000
     15594      2404  TIP3      OH2           -21.7389076951       17.7278590860       48.7513488574  TIP3      2340            0.0000000000
     15595      2404  TIP3      H1            -21.2225120114       16.9062923592       48.8301544029  TIP3      2340            0.0000000000
     15596      2404  TIP3      H2            -21.0790003857       18.4116906040       48.9269688985  TIP3      2340            0.0000000000
     15597      2405  TIP3      OH2           -23.4306182381       21.0326906203       49.2946369025  TIP3      2341            0.0000000000
     15598      2405  TIP3      H1            -22.7765049812       20.5074496531       48.7973299381  TIP3      2341            0.0000000000
     15599      2405  TIP3      H2            -22.8265661266       21.6077211521       49.7723403630  TIP3      2341            0.0000000000
     15600      2406  TIP3      OH2            -5.3201212883       17.1148707931       55.8217394085  TIP3      2342            0.0000000000
     15601      2406  TIP3      H1             -6.2510593267       17.4115621838       55.7797216584  TIP3      2342            0.0000000000
     15602      2406  TIP3      H2             -5.3216031609       16.5546478567       55.0299330132  TIP3      2342            0.0000000000
     15603      2407  TIP3      OH2            -5.3347425668       16.9729800135       40.5224609714  TIP3      2343            0.0000000000
     15604      2407  TIP3      H1             -4.9420265223       16.2666374337       39.9600421332  TIP3      2343            0.0000000000
     15605      2407  TIP3      H2             -4.6039812362       17.6055091742       40.5704483936  TIP3      2343            0.0000000000
     15606      2408  TIP3      OH2           -22.6500965016       16.8697246782       43.8505729239  TIP3      2344            0.0000000000
     15607      2408  TIP3      H1            -23.5801413431       17.0964187821       43.9437801965  TIP3      2344            0.0000000000
     15608      2408  TIP3      H2            -22.3440374977       17.4519781932       43.1206864978  TIP3      2344            0.0000000000
     15609      2409  TIP3      OH2            23.9266492051       15.7506398609       51.8256945816  TIP3      2345            0.0000000000
     15610      2409  TIP3      H1             23.2734652056       15.4299498117       52.4783629263  TIP3      2345            0.0000000000
     15611      2409  TIP3      H2             23.3832585789       16.3695767001       51.3178982493  TIP3      2345            0.0000000000
     15612      2410  TIP3      OH2            -6.2925233560       15.1698566969       53.7126894136  TIP3      2346            0.0000000000
     15613      2410  TIP3      H1             -7.1064045939       15.4912805833       53.2881881441  TIP3      2346            0.0000000000
     15614      2410  TIP3      H2             -6.1355255270       14.3387545428       53.2049753605  TIP3      2346            0.0000000000
     15615      2411  TIP3      OH2           -12.9048041315       16.6062058136       47.9601192270  TIP3      2347            0.0000000000
     15616      2411  TIP3      H1            -13.5870136017       15.9796690178       48.2580050400  TIP3      2347            0.0000000000
     15617      2411  TIP3      H2            -12.3620129079       16.0539233970       47.3889741560  TIP3      2347            0.0000000000
     15618      2412  TIP3      OH2            -7.7552293009       14.6265924786       47.9912074663  TIP3      2348            0.0000000000
     15619      2412  TIP3      H1             -7.1627233112       15.2430602581       47.4917802877  TIP3      2348            0.0000000000
     15620      2412  TIP3      H2             -8.6466543881       14.9963833070       47.7888462482  TIP3      2348            0.0000000000
     15621      2413  TIP3      OH2            -6.1183346648       15.9242994790       46.2620508761  TIP3      2349            0.0000000000
     15622      2413  TIP3      H1             -5.4280784057       15.3285765291       45.8813845233  TIP3      2349            0.0000000000
     15623      2413  TIP3      H2             -5.5806191367       16.7388750823       46.4111186406  TIP3      2349            0.0000000000
     15624      2414  TIP3      OH2           -20.5075038957       15.1814792529       45.8391814584  TIP3      2350            0.0000000000
     15625      2414  TIP3      H1            -21.2906763672       15.0577146689       45.2723587755  TIP3      2350            0.0000000000
     15626      2414  TIP3      H2            -20.0505761697       14.3223309822       45.7273153583  TIP3      2350            0.0000000000
     15627      2415  TIP3      OH2           -21.6799302436       14.9424857138       41.5618612918  TIP3      2351            0.0000000000
     15628      2415  TIP3      H1            -21.2959300560       15.6051561645       40.9626694253  TIP3      2351            0.0000000000
     15629      2415  TIP3      H2            -22.2804374960       15.5027519608       42.0697858469  TIP3      2351            0.0000000000
     15630      2416  TIP3      OH2           -16.1010489246       15.1497737773       45.6073562319  TIP3      2352            0.0000000000
     15631      2416  TIP3      H1            -15.2002512191       15.4933156005       45.4911275080  TIP3      2352            0.0000000000
     15632      2416  TIP3      H2            -16.0955926048       14.9295262309       46.5380013498  TIP3      2352            0.0000000000
     15633      2417  TIP3      OH2           -10.3133153109       15.1650913093       47.1957969810  TIP3      2353            0.0000000000
     15634      2417  TIP3      H1            -10.4236763341       15.3015985976       46.2471274058  TIP3      2353            0.0000000000
     15635      2417  TIP3      H2            -10.7191956590       14.2767640151       47.3369843336  TIP3      2353            0.0000000000
     15636      2418  TIP3      OH2            -9.0923063038       15.1917957396       42.8965963712  TIP3      2354            0.0000000000
     15637      2418  TIP3      H1             -9.8518408975       15.7788257697       42.7646885103  TIP3      2354            0.0000000000
     15638      2418  TIP3      H2             -9.5197985731       14.3461271453       43.1749603137  TIP3      2354            0.0000000000
     15639      2419  TIP3      OH2           -19.9312612471       16.9439763818       40.0386053321  TIP3      2355            0.0000000000
     15640      2419  TIP3      H1            -19.4124452321       16.3161817296       39.5141959655  TIP3      2355            0.0000000000
     15641      2419  TIP3      H2            -19.2530832612       17.2218075301       40.6771259058  TIP3      2355            0.0000000000
     15642      2420  TIP3      OH2           -14.9511270816       17.1362731973       42.4514926771  TIP3      2356            0.0000000000
     15643      2420  TIP3      H1            -14.6575309848       16.5878831851       43.1979807843  TIP3      2356            0.0000000000
     15644      2420  TIP3      H2            -14.8364586192       18.0163311178       42.8661017754  TIP3      2356            0.0000000000
     15645      2421  TIP3      OH2           -20.6954272534       15.8081902978       55.3057764373  TIP3      2357            0.0000000000
     15646      2421  TIP3      H1            -21.0859163286       15.0005677139       55.6771764940  TIP3      2357            0.0000000000
     15647      2421  TIP3      H2            -19.7821866736       15.7320301817       55.6678760574  TIP3      2357            0.0000000000
     15648      2422  TIP3      OH2           -18.6604207600       15.1572243780       56.9514505041  TIP3      2358            0.0000000000
     15649      2422  TIP3      H1            -17.7766774621       14.8078693799       56.7210212482  TIP3      2358            0.0000000000
     15650      2422  TIP3      H2            -19.0691794130       14.3553157308       57.3166127393  TIP3      2358            0.0000000000
     15651      2423  TIP3      OH2           -10.2596589578       14.4365567000       57.0772571173  TIP3      2359            0.0000000000
     15652      2423  TIP3      H1            -10.1735062798       13.9575265649       57.9262453126  TIP3      2359            0.0000000000
     15653      2423  TIP3      H2             -9.3393574070       14.4024007489       56.7400690615  TIP3      2359            0.0000000000
     15654      2424  TIP3      OH2            -1.2912568414       23.1240188424       50.6911003383  TIP3      2360            0.0000000000
     15655      2424  TIP3      H1             -1.3505995053       22.5709293252       51.4846844025  TIP3      2360            0.0000000000
     15656      2424  TIP3      H2             -0.7661332484       23.8765418151       50.9798564397  TIP3      2360            0.0000000000
     15657      2425  TIP3      OH2            -3.7710609783       21.4024166793       44.6165058257  TIP3      2361            0.0000000000
     15658      2425  TIP3      H1             -4.3056131827       22.2010871129       44.6347403972  TIP3      2361            0.0000000000
     15659      2425  TIP3      H2             -4.3703838574       20.7787625327       44.1779876284  TIP3      2361            0.0000000000
     15660      2426  TIP3      OH2            13.2188295013       17.6771569858       50.3313401333  TIP3      2362            0.0000000000
     15661      2426  TIP3      H1             13.3785407928       18.2430839899       51.1179597622  TIP3      2362            0.0000000000
     15662      2426  TIP3      H2             13.8165589178       18.1108021190       49.7037160247  TIP3      2362            0.0000000000
     15663      2427  TIP3      OH2             7.8080622734       20.4944076403       49.9661891091  TIP3      2363            0.0000000000
     15664      2427  TIP3      H1              7.9764833452       19.5379852961       49.9398047489  TIP3      2363            0.0000000000
     15665      2427  TIP3      H2              7.7057660097       20.7019478702       49.0220004015  TIP3      2363            0.0000000000
     15666      2428  TIP3      OH2             0.8848289896       18.6012166569       47.1713263875  TIP3      2364            0.0000000000
     15667      2428  TIP3      H1              1.0163841934       19.4311496849       46.6730042466  TIP3      2364            0.0000000000
     15668      2428  TIP3      H2              0.5134845500       18.0276365302       46.4654086825  TIP3      2364            0.0000000000
     15669      2429  TIP3      OH2             8.6598200488       18.6611501462       45.5393697300  TIP3      2365            0.0000000000
     15670      2429  TIP3      H1              9.2813595945       18.3314195825       46.2277287697  TIP3      2365            0.0000000000
     15671      2429  TIP3      H2              9.2534542909       19.2476409934       45.0494704211  TIP3      2365            0.0000000000
     15672      2430  TIP3      OH2            -2.4861117608       20.9417220371       47.8597263328  TIP3      2366            0.0000000000
     15673      2430  TIP3      H1             -1.8079358931       20.4492699836       48.3597425213  TIP3      2366            0.0000000000
     15674      2430  TIP3      H2             -2.3305448617       20.6238251312       46.9622371668  TIP3      2366            0.0000000000
     15675      2431  TIP3      OH2             2.6233204209       22.3213507791       47.2894366324  TIP3      2367            0.0000000000
     15676      2431  TIP3      H1              3.3678111442       21.7555607441       47.5605917710  TIP3      2367            0.0000000000
     15677      2431  TIP3      H2              2.1537009479       21.7695647787       46.6322835168  TIP3      2367            0.0000000000
     15678      2432  TIP3      OH2            13.5972379422       19.0477480497       52.6210543447  TIP3      2368            0.0000000000
     15679      2432  TIP3      H1             13.0776601423       19.8787107749       52.5195663953  TIP3      2368            0.0000000000
     15680      2432  TIP3      H2             13.6738184611       19.0063948598       53.5869382604  TIP3      2368            0.0000000000
     15681      2433  TIP3      OH2            -0.1855522124       17.4280871213       51.2014853153  TIP3      2369            0.0000000000
     15682      2433  TIP3      H1             -0.4513168919       18.0235278802       50.4693226025  TIP3      2369            0.0000000000
     15683      2433  TIP3      H2             -0.8323034330       17.6968712297       51.8981509495  TIP3      2369            0.0000000000
     15684      2434  TIP3      OH2            10.4919273698       18.0190104243       47.5498422795  TIP3      2370            0.0000000000
     15685      2434  TIP3      H1             10.2672949908       17.2504213452       48.0793736301  TIP3      2370            0.0000000000
     15686      2434  TIP3      H2             11.1410806593       18.4731246115       48.1190965666  TIP3      2370            0.0000000000
     15687      2435  TIP3      OH2            -0.6049342529       19.3339446779       49.2503377044  TIP3      2371            0.0000000000
     15688      2435  TIP3      H1              0.0361435371       19.9999022094       49.5734290035  TIP3      2371            0.0000000000
     15689      2435  TIP3      H2             -0.0942809473       18.9395774036       48.4992069746  TIP3      2371            0.0000000000
     15690      2436  TIP3      OH2            10.7891489306       16.6806780825       51.1954915938  TIP3      2372            0.0000000000
     15691      2436  TIP3      H1             10.0737111975       17.3242189758       51.0777430877  TIP3      2372            0.0000000000
     15692      2436  TIP3      H2             11.5173183643       17.0951245157       50.6907412226  TIP3      2372            0.0000000000
     15693      2437  TIP3      OH2             3.7181601272       14.8313031579       48.6607667786  TIP3      2373            0.0000000000
     15694      2437  TIP3      H1              3.5489597253       13.8731559433       48.5783594296  TIP3      2373            0.0000000000
     15695      2437  TIP3      H2              2.8511689407       15.1559108763       48.9944630178  TIP3      2373            0.0000000000
     15696      2438  TIP3      OH2             6.0955347118       22.0961737040       40.1168920954  TIP3      2374            0.0000000000
     15697      2438  TIP3      H1              6.7644180427       22.1720037059       40.8256300566  TIP3      2374            0.0000000000
     15698      2438  TIP3      H2              6.4651463289       21.3935336047       39.5782252833  TIP3      2374            0.0000000000
     15699      2439  TIP3      OH2            13.1050415247       22.9392047424       51.2144415126  TIP3      2375            0.0000000000
     15700      2439  TIP3      H1             12.7251854316       23.8114828804       51.3546513860  TIP3      2375            0.0000000000
     15701      2439  TIP3      H2             13.9331079124       23.1971345700       50.7777763572  TIP3      2375            0.0000000000
     15702      2440  TIP3      OH2             9.4356216508       22.0397906782       53.2223475281  TIP3      2376            0.0000000000
     15703      2440  TIP3      H1              9.4168914756       22.8866747997       53.6757211147  TIP3      2376            0.0000000000
     15704      2440  TIP3      H2              8.8235481191       22.2433189747       52.4768913399  TIP3      2376            0.0000000000
     15705      2441  TIP3      OH2             1.7320852881      -23.8294579668       49.8618839898  TIP3      2377            0.0000000000
     15706      2441  TIP3      H1              1.8573963687      -23.6464876716       48.9022484956  TIP3      2377            0.0000000000
     15707      2441  TIP3      H2              1.6261497398      -22.9155226462       50.1547156623  TIP3      2377            0.0000000000
     15708      2442  TIP3      OH2             8.3989024801       22.7768932857       41.4937738475  TIP3      2378            0.0000000000
     15709      2442  TIP3      H1              8.6863653102       22.9968866350       42.3952079331  TIP3      2378            0.0000000000
     15710      2442  TIP3      H2              8.6371128008       23.5657167748       41.0000148333  TIP3      2378            0.0000000000
     15711      2443  TIP3      OH2            12.1357746501       14.7460620265       41.7124066932  TIP3      2379            0.0000000000
     15712      2443  TIP3      H1             11.1768422010       14.8363077902       41.9091608750  TIP3      2379            0.0000000000
     15713      2443  TIP3      H2             12.3197739170       15.5826508654       41.2429355987  TIP3      2379            0.0000000000
     15714      2444  TIP3      OH2            11.2968728557       20.8622588738       55.4439218035  TIP3      2380            0.0000000000
     15715      2444  TIP3      H1             10.9039417824       21.3312498956       54.6950767079  TIP3      2380            0.0000000000
     15716      2444  TIP3      H2             11.2804691930       19.9382574689       55.1451523853  TIP3      2380            0.0000000000
     15717      2445  TIP3      OH2             1.1600815413       15.7432601971       49.4004608605  TIP3      2381            0.0000000000
     15718      2445  TIP3      H1              0.2523972442       15.5928731338       49.0585546890  TIP3      2381            0.0000000000
     15719      2445  TIP3      H2              1.0004845665       16.5420371922       49.9300403161  TIP3      2381            0.0000000000
     15720      2446  TIP3      OH2             5.8131349327       15.3643396354       52.7674035586  TIP3      2382            0.0000000000
     15721      2446  TIP3      H1              6.1922739426       14.9418313859       53.5614164620  TIP3      2382            0.0000000000
     15722      2446  TIP3      H2              4.8378696671       15.2834891439       52.9154301334  TIP3      2382            0.0000000000
     15723      2447  TIP3      OH2             9.0460716155       19.2885228960       53.6928701779  TIP3      2383            0.0000000000
     15724      2447  TIP3      H1              8.5057904888       19.0469318293       54.4860542428  TIP3      2383            0.0000000000
     15725      2447  TIP3      H2              8.8248498461       20.2048076701       53.4735854061  TIP3      2383            0.0000000000
     15726      2448  TIP3      OH2             5.4655127222       17.9343409803       40.0989888206  TIP3      2384            0.0000000000
     15727      2448  TIP3      H1              5.1073574887       17.9226435318       41.0013479107  TIP3      2384            0.0000000000
     15728      2448  TIP3      H2              5.0966300351       17.0911451764       39.7754063622  TIP3      2384            0.0000000000
     15729      2449  TIP3      OH2             1.2380130768       20.5762203810       50.8078043756  TIP3      2385            0.0000000000
     15730      2449  TIP3      H1              0.4432632675       20.6999594841       51.3537435694  TIP3      2385            0.0000000000
     15731      2449  TIP3      H2              1.2547291333       21.4297118201       50.3102699919  TIP3      2385            0.0000000000
     15732      2450  TIP3      OH2             1.1815060645       20.7311784363       45.5357462451  TIP3      2386            0.0000000000
     15733      2450  TIP3      H1              0.2315948058       20.5476094137       45.3741310937  TIP3      2386            0.0000000000
     15734      2450  TIP3      H2              1.5519054324       20.5152728006       44.6573901906  TIP3      2386            0.0000000000
     15735      2451  TIP3      OH2             6.8719859382       21.4043954640       44.3963527172  TIP3      2387            0.0000000000
     15736      2451  TIP3      H1              6.2392967790       22.0144302322       43.9861225485  TIP3      2387            0.0000000000
     15737      2451  TIP3      H2              7.3934757105       21.0723866084       43.6393363215  TIP3      2387            0.0000000000
     15738      2452  TIP3      OH2             5.8818155295       21.5416827873       55.7084077047  TIP3      2388            0.0000000000
     15739      2452  TIP3      H1              5.2843797233       20.8085707964       56.0128653839  TIP3      2388            0.0000000000
     15740      2452  TIP3      H2              6.6570373573       21.3790480779       56.2740502985  TIP3      2388            0.0000000000
     15741      2453  TIP3      OH2             7.6967481087       20.7628452787       47.1784400960  TIP3      2389            0.0000000000
     15742      2453  TIP3      H1              7.4423188198       21.2746398798       46.3944487387  TIP3      2389            0.0000000000
     15743      2453  TIP3      H2              7.8608619200       19.8947241126       46.7570491446  TIP3      2389            0.0000000000
     15744      2454  TIP3      OH2            -1.1566196735       21.0089841031       52.3931269107  TIP3      2390            0.0000000000
     15745      2454  TIP3      H1             -1.1184191921       21.3575905161       53.2935896352  TIP3      2390            0.0000000000
     15746      2454  TIP3      H2             -1.5650081961       20.1376165490       52.5318609518  TIP3      2390            0.0000000000
     15747      2455  TIP3      OH2             2.1966434327       18.3260208748       39.1776301323  TIP3      2391            0.0000000000
     15748      2455  TIP3      H1              1.7796989524       17.9704568969       39.9882466211  TIP3      2391            0.0000000000
     15749      2455  TIP3      H2              1.4800630031       18.7849090769       38.7266152805  TIP3      2391            0.0000000000
     15750      2456  TIP3      OH2            -4.4588571799       18.0093958070       46.3721249704  TIP3      2392            0.0000000000
     15751      2456  TIP3      H1             -3.7668330967       18.0072752202       47.0664261572  TIP3      2392            0.0000000000
     15752      2456  TIP3      H2             -4.0023590737       17.6985747575       45.5743979146  TIP3      2392            0.0000000000
     15753      2457  TIP3      OH2            -3.2626485872       18.7335526433       41.6595823281  TIP3      2393            0.0000000000
     15754      2457  TIP3      H1             -2.7088871481       19.3369755227       41.1205803827  TIP3      2393            0.0000000000
     15755      2457  TIP3      H2             -3.9175741306       19.3874435164       41.9887523215  TIP3      2393            0.0000000000
     15756      2458  TIP3      OH2             7.0399812788       22.3201498372       51.8383261679  TIP3      2394            0.0000000000
     15757      2458  TIP3      H1              7.3044969196       21.7616395447       51.0776659567  TIP3      2394            0.0000000000
     15758      2458  TIP3      H2              6.4514999531       21.7332965566       52.3490404698  TIP3      2394            0.0000000000
     15759      2459  TIP3      OH2             3.7707130897       18.3604816811       46.5383620393  TIP3      2395            0.0000000000
     15760      2459  TIP3      H1              2.8346865785       18.3719073860       46.8201015808  TIP3      2395            0.0000000000
     15761      2459  TIP3      H2              4.2277911897       18.2129238967       47.3812348046  TIP3      2395            0.0000000000
     15762      2460  TIP3      OH2            -1.4094033602       19.8584240928       45.4708442882  TIP3      2396            0.0000000000
     15763      2460  TIP3      H1             -2.2692485990       20.0867187374       45.0673453104  TIP3      2396            0.0000000000
     15764      2460  TIP3      H2             -1.1413709732       19.0555335168       44.9858614902  TIP3      2396            0.0000000000
     15765      2461  TIP3      OH2             2.2029346059       19.9796675761       43.0296122435  TIP3      2397            0.0000000000
     15766      2461  TIP3      H1              3.1582318070       20.0724663022       43.1869122390  TIP3      2397            0.0000000000
     15767      2461  TIP3      H2              1.9946005786       20.6519654846       42.3488449042  TIP3      2397            0.0000000000
     15768      2462  TIP3      OH2             8.1774031723       17.6157603176       49.7772427696  TIP3      2398            0.0000000000
     15769      2462  TIP3      H1              7.5030337996       17.6371025634       50.4916426208  TIP3      2398            0.0000000000
     15770      2462  TIP3      H2              7.6612636443       17.3370388799       49.0077328890  TIP3      2398            0.0000000000
     15771      2463  TIP3      OH2             0.8987355635       21.1268665013       40.5928643420  TIP3      2399            0.0000000000
     15772      2463  TIP3      H1              0.4233891344       20.7474452909       39.8463304917  TIP3      2399            0.0000000000
     15773      2463  TIP3      H2              1.7554300416       21.3658879460       40.1933786816  TIP3      2399            0.0000000000
     15774      2464  TIP3      OH2             4.9401497551       21.0726725683       48.3813995415  TIP3      2400            0.0000000000
     15775      2464  TIP3      H1              5.6576848359       20.6112832429       47.9358130177  TIP3      2400            0.0000000000
     15776      2464  TIP3      H2              4.8830487282       20.6021834332       49.2239975346  TIP3      2400            0.0000000000
     15777      2465  TIP3      OH2             0.0523487478       17.2606397516       44.8895496335  TIP3      2401            0.0000000000
     15778      2465  TIP3      H1             -0.2658973589       16.3412300459       44.9104436763  TIP3      2401            0.0000000000
     15779      2465  TIP3      H2              0.8396996125       17.1802459439       44.3373761258  TIP3      2401            0.0000000000
     15780      2466  TIP3      OH2             3.6954054418       19.4513082379       50.8307734191  TIP3      2402            0.0000000000
     15781      2466  TIP3      H1              2.8722171035       19.9734219795       50.9208023143  TIP3      2402            0.0000000000
     15782      2466  TIP3      H2              4.2547636346       19.7960138153       51.5497672692  TIP3      2402            0.0000000000
     15783      2467  TIP3      OH2             8.1188788354       18.5042505886       40.7386123922  TIP3      2403            0.0000000000
     15784      2467  TIP3      H1              7.1673666047       18.6397199179       40.5789122788  TIP3      2403            0.0000000000
     15785      2467  TIP3      H2              8.4304652158       19.3699016859       41.0654878255  TIP3      2403            0.0000000000
     15786      2468  TIP3      OH2             8.8056764824       20.4274467707       42.4324952367  TIP3      2404            0.0000000000
     15787      2468  TIP3      H1              9.7066328115       20.2044626354       42.7614496968  TIP3      2404            0.0000000000
     15788      2468  TIP3      H2              8.9582314970       21.1975907939       41.8555699107  TIP3      2404            0.0000000000
     15789      2469  TIP3      OH2             3.2796751767       22.0007988392       56.1765698072  TIP3      2405            0.0000000000
     15790      2469  TIP3      H1              2.9561012988       22.3119205415       55.3190498259  TIP3      2405            0.0000000000
     15791      2469  TIP3      H2              4.1822165592       22.3680878117       56.2411139474  TIP3      2405            0.0000000000
     15792      2470  TIP3      OH2            13.6736829725       20.5256424858       42.1529066656  TIP3      2406            0.0000000000
     15793      2470  TIP3      H1             13.1773761264       20.2111429841       41.3748715929  TIP3      2406            0.0000000000
     15794      2470  TIP3      H2             13.7609354085       21.4639375129       41.9301992233  TIP3      2406            0.0000000000
     15795      2471  TIP3      OH2            -2.3672496481      -23.4915821265       39.9403231712  TIP3      2407            0.0000000000
     15796      2471  TIP3      H1             -1.7934043200      -23.0270429609       40.5676360136  TIP3      2407            0.0000000000
     15797      2471  TIP3      H2             -3.2355880537      -23.2959762674       40.3389889100  TIP3      2407            0.0000000000
     15798      2472  TIP3      OH2            -1.9587019201       18.2138638193       53.1537181465  TIP3      2408            0.0000000000
     15799      2472  TIP3      H1             -2.8711339739       18.5432601869       53.1459830435  TIP3      2408            0.0000000000
     15800      2472  TIP3      H2             -2.0703727393       17.3891339697       53.6475815526  TIP3      2408            0.0000000000
     15801      2473  TIP3      OH2             6.7520438119       17.9576673084       52.1650719869  TIP3      2409            0.0000000000
     15802      2473  TIP3      H1              7.4621347034       18.0835419095       52.8002448981  TIP3      2409            0.0000000000
     15803      2473  TIP3      H2              6.3948414120       17.0785178910       52.3972873682  TIP3      2409            0.0000000000
     15804      2474  TIP3      OH2             7.4873460898       17.5275927845       43.2412949142  TIP3      2410            0.0000000000
     15805      2474  TIP3      H1              7.7259707431       17.9467599313       42.3926631978  TIP3      2410            0.0000000000
     15806      2474  TIP3      H2              8.0682021801       17.9972622999       43.8598989892  TIP3      2410            0.0000000000
     15807      2475  TIP3      OH2             4.7410562951       19.2656862427       44.0379607294  TIP3      2411            0.0000000000
     15808      2475  TIP3      H1              5.4753131870       19.8909651778       44.0996553045  TIP3      2411            0.0000000000
     15809      2475  TIP3      H2              4.4257542476       19.1702215186       44.9600090428  TIP3      2411            0.0000000000
     15810      2476  TIP3      OH2             5.2988048521       20.3524502071       53.2938040258  TIP3      2412            0.0000000000
     15811      2476  TIP3      H1              5.3642882145       20.8391305164       54.1324510873  TIP3      2412            0.0000000000
     15812      2476  TIP3      H2              5.9334761768       19.6222701569       53.3576486501  TIP3      2412            0.0000000000
     15813      2477  TIP3      OH2             5.5587292122       16.3244918473       44.8810604082  TIP3      2413            0.0000000000
     15814      2477  TIP3      H1              5.2336944670       16.9654067643       45.5355848991  TIP3      2413            0.0000000000
     15815      2477  TIP3      H2              6.2704488444       16.8755220825       44.4687109721  TIP3      2413            0.0000000000
     15816      2478  TIP3      OH2             1.2375665286       17.4445325022       41.6135847998  TIP3      2414            0.0000000000
     15817      2478  TIP3      H1              1.1782650014       18.3337099609       42.0167495581  TIP3      2414            0.0000000000
     15818      2478  TIP3      H2              2.1395145228       17.1886137131       41.8971782056  TIP3      2414            0.0000000000
     15819      2479  TIP3      OH2            11.4257676800       18.1399246971       54.0804875750  TIP3      2415            0.0000000000
     15820      2479  TIP3      H1             10.5029874977       18.4620173196       53.9510668373  TIP3      2415            0.0000000000
     15821      2479  TIP3      H2             11.7507545854       18.1629154328       53.1660702576  TIP3      2415            0.0000000000
     15822      2480  TIP3      OH2            10.0627937345       21.7894089989       47.9609563791  TIP3      2416            0.0000000000
     15823      2480  TIP3      H1              9.1678568695       21.4311707592       47.8701511506  TIP3      2416            0.0000000000
     15824      2480  TIP3      H2             10.4800606738       21.1838182411       48.6094216626  TIP3      2416            0.0000000000
     15825      2481  TIP3      OH2            -2.2282010374       20.5229560810       39.8246152258  TIP3      2417            0.0000000000
     15826      2481  TIP3      H1             -2.1875763520       21.4877272517       40.0029209610  TIP3      2417            0.0000000000
     15827      2481  TIP3      H2             -3.1035290646       20.3877960384       39.4603740119  TIP3      2417            0.0000000000
     15828      2482  TIP3      OH2            -1.3798924560       15.3540748620       48.5914505605  TIP3      2418            0.0000000000
     15829      2482  TIP3      H1             -1.5396128298       15.3620877946       47.6217957062  TIP3      2418            0.0000000000
     15830      2482  TIP3      H2             -1.7681775403       14.4851156444       48.8259385817  TIP3      2418            0.0000000000
     15831      2483  TIP3      OH2            -2.4768641693       22.7081258819       56.2941861025  TIP3      2419            0.0000000000
     15832      2483  TIP3      H1             -1.9968255411       21.8787999905       56.3554201719  TIP3      2419            0.0000000000
     15833      2483  TIP3      H2             -2.6620908040       22.9281727114       57.2393173829  TIP3      2419            0.0000000000
     15834      2484  TIP3      OH2             1.4995093532       21.9395876956       53.8091164739  TIP3      2420            0.0000000000
     15835      2484  TIP3      H1              0.9219269609       22.6872830311       54.0195752985  TIP3      2420            0.0000000000
     15836      2484  TIP3      H2              1.8672228619       22.1636338478       52.9382084229  TIP3      2420            0.0000000000
     15837      2485  TIP3      OH2             3.3198935775       22.0978271861       39.8295256502  TIP3      2421            0.0000000000
     15838      2485  TIP3      H1              3.1635380446       22.1470033111       38.8617158045  TIP3      2421            0.0000000000
     15839      2485  TIP3      H2              4.2602320801       22.3584657700       39.8481585210  TIP3      2421            0.0000000000
     15840      2486  TIP3      OH2             1.9314351828       19.1759258955       54.7390890543  TIP3      2422            0.0000000000
     15841      2486  TIP3      H1              2.0672715544       18.4759885578       54.0776745355  TIP3      2422            0.0000000000
     15842      2486  TIP3      H2              1.8831378448       19.9867058408       54.2060196803  TIP3      2422            0.0000000000
     15843      2487  TIP3      OH2             2.3391793978       17.5498743754       52.3005724298  TIP3      2423            0.0000000000
     15844      2487  TIP3      H1              2.8501053049       18.0517263101       51.6256337461  TIP3      2423            0.0000000000
     15845      2487  TIP3      H2              1.4303380739       17.6128194179       51.9357780278  TIP3      2423            0.0000000000
     15846      2488  TIP3      OH2             4.1153184782      -24.0516748341       52.3270351226  TIP3      2424            0.0000000000
     15847      2488  TIP3      H1              4.9443931289      -24.0208840962       51.8267676580  TIP3      2424            0.0000000000
     15848      2488  TIP3      H2              3.7560225420      -23.1820608806       52.1783218226  TIP3      2424            0.0000000000
     15849      2489  TIP3      OH2             8.2825257151       20.8523987305       57.5179408895  TIP3      2425            0.0000000000
     15850      2489  TIP3      H1              8.4314084482       19.9008379100       57.4035471163  TIP3      2425            0.0000000000
     15851      2489  TIP3      H2              9.1949480887       21.1824436038       57.4948119316  TIP3      2425            0.0000000000
     15852      2490  TIP3      OH2             0.3174280779       20.5348379599       56.6611028025  TIP3      2426            0.0000000000
     15853      2490  TIP3      H1             -0.3795971592       19.8568193454       56.5438335021  TIP3      2426            0.0000000000
     15854      2490  TIP3      H2              1.0311339072       20.1929961194       56.0847528173  TIP3      2426            0.0000000000
     15855      2491  TIP3      OH2             3.1280141096       15.0640879705       52.6926633333  TIP3      2427            0.0000000000
     15856      2491  TIP3      H1              2.9054197823       16.0250390502       52.6016781488  TIP3      2427            0.0000000000
     15857      2491  TIP3      H2              2.3825060041       14.6829887333       52.1936709889  TIP3      2427            0.0000000000
     15858      2492  TIP3      OH2             4.4257058306       19.3573898827       56.3486043703  TIP3      2428            0.0000000000
     15859      2492  TIP3      H1              4.0607827202       19.1900574662       57.2409669971  TIP3      2428            0.0000000000
     15860      2492  TIP3      H2              3.6395271814       19.1738479555       55.8096229359  TIP3      2428            0.0000000000
     15861      2493  TIP3      OH2             7.1352500970       18.5919471774       55.4922655420  TIP3      2429            0.0000000000
     15862      2493  TIP3      H1              6.1664655638       18.6377910795       55.5682437113  TIP3      2429            0.0000000000
     15863      2493  TIP3      H2              7.3505700228       17.9272338572       56.1767341621  TIP3      2429            0.0000000000
     15864      2494  TIP3      OH2             8.6571180344       17.1743614638       57.3184814758  TIP3      2430            0.0000000000
     15865      2494  TIP3      H1              8.6499386073       16.1942974473       57.3610197209  TIP3      2430            0.0000000000
     15866      2494  TIP3      H2              8.4667757508       17.4669947923       58.2315351543  TIP3      2430            0.0000000000
     15867      2495  TIP3      OH2            -1.5439833017       18.4781114640       56.4966376366  TIP3      2431            0.0000000000
     15868      2495  TIP3      H1             -1.3286834362       17.7385001490       55.8990460982  TIP3      2431            0.0000000000
     15869      2495  TIP3      H2             -1.6654774694       18.0116074134       57.3484677097  TIP3      2431            0.0000000000
     15870      2496  TIP3      OH2             3.3319555679       14.4961534100       55.4054088707  TIP3      2432            0.0000000000
     15871      2496  TIP3      H1              3.9961330688       13.7802783095       55.4129054920  TIP3      2432            0.0000000000
     15872      2496  TIP3      H2              3.2075233700       14.5868167485       54.4388908400  TIP3      2432            0.0000000000
     15873      2497  TIP3      OH2             3.6868261673       16.0775527888       57.5684872816  TIP3      2433            0.0000000000
     15874      2497  TIP3      H1              3.5031675603       15.5578049691       56.7461244882  TIP3      2433            0.0000000000
     15875      2497  TIP3      H2              3.1038889819       16.8558392647       57.4533225260  TIP3      2433            0.0000000000
     15876      2498  TIP3      OH2            12.1418491746       20.6551724203       39.7485881758  TIP3      2434            0.0000000000
     15877      2498  TIP3      H1             12.3537571606       21.2156906787       39.0003201082  TIP3      2434            0.0000000000
     15878      2498  TIP3      H2             12.0544843674       19.7754939654       39.3195541713  TIP3      2434            0.0000000000
     15879      2499  TIP3      OH2            11.3701534005       22.0599739017       45.3934757265  TIP3      2435            0.0000000000
     15880      2499  TIP3      H1             11.2081232406       21.1072579246       45.3811652840  TIP3      2435            0.0000000000
     15881      2499  TIP3      H2             11.1061393009       22.2833903318       46.2992716446  TIP3      2435            0.0000000000
     15882      2500  TIP3      OH2            13.7261630911       21.9674630359       55.8258307471  TIP3      2436            0.0000000000
     15883      2500  TIP3      H1             12.8647355656       21.5567944763       55.6513701993  TIP3      2436            0.0000000000
     15884      2500  TIP3      H2             14.3123920642       21.2046685457       55.6772127400  TIP3      2436            0.0000000000
     15885      2501  TIP3      OH2            11.4494847696       18.1464041955       38.9324062379  TIP3      2437            0.0000000000
     15886      2501  TIP3      H1             12.0542706741       17.6819718622       39.5461339618  TIP3      2437            0.0000000000
     15887      2501  TIP3      H2             10.6096102006       17.6835248923       39.0547198365  TIP3      2437            0.0000000000
     15888      2502  TIP3      OH2            10.9779074311       19.7073399319       43.9060871234  TIP3      2438            0.0000000000
     15889      2502  TIP3      H1             11.2787748375       18.7825235754       44.0541026842  TIP3      2438            0.0000000000
     15890      2502  TIP3      H2             11.8100230109       20.0880268248       43.5907123451  TIP3      2438            0.0000000000
     15891      2503  TIP3      OH2            11.7007311508       20.1046162522       49.4024364027  TIP3      2439            0.0000000000
     15892      2503  TIP3      H1             12.6399060578       20.4012222260       49.3302436240  TIP3      2439            0.0000000000
     15893      2503  TIP3      H2             11.4903044730       20.4054866600       50.2920446054  TIP3      2439            0.0000000000
     15894      2504  TIP3      OH2            11.7295421667       20.9383636178       52.2846190779  TIP3      2440            0.0000000000
     15895      2504  TIP3      H1             10.8111447362       21.2345264213       52.4495952870  TIP3      2440            0.0000000000
     15896      2504  TIP3      H2             12.1598398862       21.7158686450       51.8387000633  TIP3      2440            0.0000000000
     15897      2505  TIP3      OH2            -3.9718245010       19.4186341499       55.6614213063  TIP3      2441            0.0000000000
     15898      2505  TIP3      H1             -3.0433291569       19.2158271001       55.8898742667  TIP3      2441            0.0000000000
     15899      2505  TIP3      H2             -4.4465118361       18.6089578611       55.9442004236  TIP3      2441            0.0000000000
     15900      2506  TIP3      OH2            14.0357179460       15.0251509945       57.4576511029  TIP3      2442            0.0000000000
     15901      2506  TIP3      H1             14.3866054148       14.3475996901       56.8523994194  TIP3      2442            0.0000000000
     15902      2506  TIP3      H2             14.0939242889       15.8174020061       56.8895524594  TIP3      2442            0.0000000000
     15903      2507  TIP3      OH2            11.7026754856       16.9725969496       43.9515464240  TIP3      2443            0.0000000000
     15904      2507  TIP3      H1             11.9525423587       16.5473105339       44.8052799007  TIP3      2443            0.0000000000
     15905      2507  TIP3      H2             11.1341533779       16.2981932799       43.5287120195  TIP3      2443            0.0000000000
     15906      2508  TIP3      OH2            -2.8039406644       17.7481628599       48.5299514120  TIP3      2444            0.0000000000
     15907      2508  TIP3      H1             -2.3525208322       16.9141564101       48.7631465536  TIP3      2444            0.0000000000
     15908      2508  TIP3      H2             -2.2197715524       18.4251198568       48.8979191988  TIP3      2444            0.0000000000
     15909      2509  TIP3      OH2            -4.5253629467       20.7501215712       49.5256041088  TIP3      2445            0.0000000000
     15910      2509  TIP3      H1             -3.9545947291       20.5059417065       48.7665694769  TIP3      2445            0.0000000000
     15911      2509  TIP3      H2             -4.0705457322       21.5606128705       49.7938323722  TIP3      2445            0.0000000000
     15912      2510  TIP3      OH2            13.5357729835       17.1176722815       55.8224215527  TIP3      2446            0.0000000000
     15913      2510  TIP3      H1             12.6042509794       17.4105494208       55.7774630944  TIP3      2446            0.0000000000
     15914      2510  TIP3      H2             13.5384507765       16.5513757583       55.0360861376  TIP3      2446            0.0000000000
     15915      2511  TIP3      OH2            13.5104116055       16.9723859721       40.5223641447  TIP3      2447            0.0000000000
     15916      2511  TIP3      H1             13.9123699467       16.2693714515       39.9651959853  TIP3      2447            0.0000000000
     15917      2511  TIP3      H2             14.2349282295       17.6088912275       40.5739232197  TIP3      2447            0.0000000000
     15918      2512  TIP3      OH2            -4.1615891796       17.0512649819       43.6331698728  TIP3      2448            0.0000000000
     15919      2512  TIP3      H1             -5.1051972130       17.1817325897       43.4665690818  TIP3      2448            0.0000000000
     15920      2512  TIP3      H2             -3.7615038332       17.5256216931       42.8858013856  TIP3      2448            0.0000000000
     15921      2513  TIP3      OH2            -4.2146406394       15.6647026461       51.9247484515  TIP3      2449            0.0000000000
     15922      2513  TIP3      H1             -4.8795585469       15.4659459297       52.6057642459  TIP3      2449            0.0000000000
     15923      2513  TIP3      H2             -4.6736636149       16.3347001648       51.3774635671  TIP3      2449            0.0000000000
     15924      2514  TIP3      OH2            12.5612696925       15.1703678345       53.7150373031  TIP3      2450            0.0000000000
     15925      2514  TIP3      H1             11.7484096509       15.4922229464       53.2888006470  TIP3      2450            0.0000000000
     15926      2514  TIP3      H2             12.7200364253       14.3397052362       53.2074614864  TIP3      2450            0.0000000000
     15927      2515  TIP3      OH2             5.9509137679       16.6065813574       47.9593259002  TIP3      2451            0.0000000000
     15928      2515  TIP3      H1              5.2692906799       15.9797778739       48.2578127178  TIP3      2451            0.0000000000
     15929      2515  TIP3      H2              6.4942203642       16.0539167046       47.3889092705  TIP3      2451            0.0000000000
     15930      2516  TIP3      OH2            11.1053729910       14.6250914055       47.9927106444  TIP3      2452            0.0000000000
     15931      2516  TIP3      H1             11.6957146474       15.2427365102       47.4919015492  TIP3      2452            0.0000000000
     15932      2516  TIP3      H2             10.2132742290       14.9927931475       47.7915447853  TIP3      2452            0.0000000000
     15933      2517  TIP3      OH2            12.7371597275       15.9241908521       46.2618031895  TIP3      2453            0.0000000000
     15934      2517  TIP3      H1             13.4275733645       15.3287039376       45.8809924774  TIP3      2453            0.0000000000
     15935      2517  TIP3      H2             13.2749927290       16.7384791956       46.4122634390  TIP3      2453            0.0000000000
     15936      2518  TIP3      OH2            -1.6582004483       15.2176217851       45.8235730585  TIP3      2454            0.0000000000
     15937      2518  TIP3      H1             -2.4627898673       15.0641147052       45.2927268480  TIP3      2454            0.0000000000
     15938      2518  TIP3      H2             -1.2336119560       14.3392440878       45.7431358215  TIP3      2454            0.0000000000
     15939      2519  TIP3      OH2            -2.9317354983       14.9831123158       41.4989978538  TIP3      2455            0.0000000000
     15940      2519  TIP3      H1             -2.4053169758       15.6385778118       41.0060074431  TIP3      2455            0.0000000000
     15941      2519  TIP3      H2             -3.4650100651       15.5518288010       42.0764401764  TIP3      2455            0.0000000000
     15942      2520  TIP3      OH2             2.7521975176       15.1430066636       45.6081661735  TIP3      2456            0.0000000000
     15943      2520  TIP3      H1              3.6523205272       15.4960777724       45.4921598361  TIP3      2456            0.0000000000
     15944      2520  TIP3      H2              2.7561276818       14.9321112087       46.5412100338  TIP3      2456            0.0000000000
     15945      2521  TIP3      OH2             8.5443254897       15.1652037512       47.1964940599  TIP3      2457            0.0000000000
     15946      2521  TIP3      H1              8.4323145553       15.3015533721       46.2469430306  TIP3      2457            0.0000000000
     15947      2521  TIP3      H2              8.1366583048       14.2764252677       47.3369551362  TIP3      2457            0.0000000000
     15948      2522  TIP3      OH2             9.7639466629       15.1921030718       42.8968270806  TIP3      2458            0.0000000000
     15949      2522  TIP3      H1              9.0042986325       15.7789003913       42.7646968397  TIP3      2458            0.0000000000
     15950      2522  TIP3      H2              9.3365553404       14.3462246981       43.1749830926  TIP3      2458            0.0000000000
     15951      2523  TIP3      OH2            -1.1124595309       16.9163865266       40.0676423198  TIP3      2459            0.0000000000
     15952      2523  TIP3      H1             -0.5802372963       16.3147608787       39.5206386063  TIP3      2459            0.0000000000
     15953      2523  TIP3      H2             -0.4349694311       17.2421958012       40.6873374722  TIP3      2459            0.0000000000
     15954      2524  TIP3      OH2             3.8961112952       17.1415357541       42.4519032656  TIP3      2460            0.0000000000
     15955      2524  TIP3      H1              4.1922164407       16.5894690878       43.1946811416  TIP3      2460            0.0000000000
     15956      2524  TIP3      H2              4.0182297754       18.0199626855       42.8682953292  TIP3      2460            0.0000000000
     15957      2525  TIP3      OH2            -1.8056297364       15.7840611833       55.2616009126  TIP3      2461            0.0000000000
     15958      2525  TIP3      H1             -2.2261459781       14.9824050042       55.6230772218  TIP3      2461            0.0000000000
     15959      2525  TIP3      H2             -0.9131211823       15.7191229843       55.6794141833  TIP3      2461            0.0000000000
     15960      2526  TIP3      OH2             0.1775970994       15.1762129085       56.9543319433  TIP3      2462            0.0000000000
     15961      2526  TIP3      H1              1.0666023424       14.8415022142       56.7158400383  TIP3      2462            0.0000000000
     15962      2526  TIP3      H2             -0.1912071514       14.3579244877       57.3405901280  TIP3      2462            0.0000000000
     15963      2527  TIP3      OH2             8.5880180735       14.4390391330       57.0761901887  TIP3      2463            0.0000000000
     15964      2527  TIP3      H1              8.6860687065       13.9583367080       57.9232823874  TIP3      2463            0.0000000000
     15965      2527  TIP3      H2              9.5038052392       14.4171989591       56.7299596407  TIP3      2463            0.0000000000
     15966      2528  TIP3      OH2            17.5644776600       23.1194055292       50.7002822072  TIP3      2464            0.0000000000
     15967      2528  TIP3      H1             17.5023264521       22.5725468083       51.4959959888  TIP3      2464            0.0000000000
     15968      2528  TIP3      H2             18.0977643626       23.8680371049       50.9879793329  TIP3      2464            0.0000000000
     15969      2529  TIP3      OH2            15.0626353883       21.3999618261       44.5987089918  TIP3      2465            0.0000000000
     15970      2529  TIP3      H1             14.5281946667       22.1943472622       44.6235526086  TIP3      2465            0.0000000000
     15971      2529  TIP3      H2             14.4645198683       20.7751069858       44.1626549709  TIP3      2465            0.0000000000
     15972      2530  TIP3      OH2            19.5432582072       18.5853219696       47.2021211312  TIP3      2466            0.0000000000
     15973      2530  TIP3      H1             19.8992492084       19.3733661225       46.7336778553  TIP3      2466            0.0000000000
     15974      2530  TIP3      H2             19.2794444442       18.0268524575       46.4403454553  TIP3      2466            0.0000000000
     15975      2531  TIP3      OH2            16.3831216696       20.9335349876       47.8588964925  TIP3      2467            0.0000000000
     15976      2531  TIP3      H1             17.0683541726       20.4394503110       48.3509742551  TIP3      2467            0.0000000000
     15977      2531  TIP3      H2             16.5384549864       20.6167550161       46.9594271492  TIP3      2467            0.0000000000
     15978      2532  TIP3      OH2            21.4771206049       22.3298945263       47.2443352642  TIP3      2468            0.0000000000
     15979      2532  TIP3      H1             22.1913004646       21.7580859915       47.5854179669  TIP3      2468            0.0000000000
     15980      2532  TIP3      H2             20.9628513917       21.7245832247       46.6710832688  TIP3      2468            0.0000000000
     15981      2533  TIP3      OH2            18.6106902238       17.4321287818       51.2125728392  TIP3      2469            0.0000000000
     15982      2533  TIP3      H1             18.3886456793       18.0523467399       50.4814464037  TIP3      2469            0.0000000000
     15983      2533  TIP3      H2             17.9660737202       17.7127360421       51.9058811820  TIP3      2469            0.0000000000
     15984      2534  TIP3      OH2            18.2212159358       19.3553465567       49.2749577964  TIP3      2470            0.0000000000
     15985      2534  TIP3      H1             18.8916866013       19.9987773262       49.5838883509  TIP3      2470            0.0000000000
     15986      2534  TIP3      H2             18.7025999508       18.9595633125       48.4976269950  TIP3      2470            0.0000000000
     15987      2535  TIP3      OH2            22.5567492402       14.8097930175       48.6034443730  TIP3      2471            0.0000000000
     15988      2535  TIP3      H1             22.4685010031       13.8508606188       48.6514978708  TIP3      2471            0.0000000000
     15989      2535  TIP3      H2             21.7222476428       15.1350804368       48.9850584563  TIP3      2471            0.0000000000
     15990      2536  TIP3      OH2            20.5747949818      -23.8388747298       49.9084264493  TIP3      2472            0.0000000000
     15991      2536  TIP3      H1             20.6932345686      -23.6872324488       48.9455520022  TIP3      2472            0.0000000000
     15992      2536  TIP3      H2             20.4461209246      -22.9102181114       50.1591141970  TIP3      2472            0.0000000000
     15993      2537  TIP3      OH2            20.0171151524       15.7647326610       49.3952646017  TIP3      2473            0.0000000000
     15994      2537  TIP3      H1             19.1013573865       15.5963057854       49.0772667871  TIP3      2473            0.0000000000
     15995      2537  TIP3      H2             19.8645089280       16.5641817551       49.9302457125  TIP3      2473            0.0000000000
     15996      2538  TIP3      OH2            20.0959617508       20.5472869060       50.7980302901  TIP3      2474            0.0000000000
     15997      2538  TIP3      H1             19.2948894307       20.6972521520       51.3317223501  TIP3      2474            0.0000000000
     15998      2538  TIP3      H2             20.1721133366       21.4128293466       50.3220139020  TIP3      2474            0.0000000000
     15999      2539  TIP3      OH2            20.0352022406       20.7665305012       45.5011298600  TIP3      2475            0.0000000000
     16000      2539  TIP3      H1             19.0829580185       20.5582713399       45.3771575619  TIP3      2475            0.0000000000
     16001      2539  TIP3      H2             20.4035318227       20.4815670235       44.6445065519  TIP3      2475            0.0000000000
     16002      2540  TIP3      OH2            17.7184629451       21.0129068143       52.4048589772  TIP3      2476            0.0000000000
     16003      2540  TIP3      H1             17.7499209627       21.3640675641       53.3030189701  TIP3      2476            0.0000000000
     16004      2540  TIP3      H2             17.2929488454       20.1495274653       52.5416781831  TIP3      2476            0.0000000000
     16005      2541  TIP3      OH2            20.9522284452       18.1540486848       39.2437400660  TIP3      2477            0.0000000000
     16006      2541  TIP3      H1             20.5169512197       17.9140105632       40.0779874277  TIP3      2477            0.0000000000
     16007      2541  TIP3      H2             20.3399750559       18.7653597703       38.8137395769  TIP3      2477            0.0000000000
     16008      2542  TIP3      OH2            14.3967441691       18.0082157533       46.3725363480  TIP3      2478            0.0000000000
     16009      2542  TIP3      H1             15.0885501364       18.0081471741       47.0664443455  TIP3      2478            0.0000000000
     16010      2542  TIP3      H2             14.8538518814       17.6988891079       45.5746300956  TIP3      2478            0.0000000000
     16011      2543  TIP3      OH2            15.5734453195       18.7228177136       41.6900380095  TIP3      2479            0.0000000000
     16012      2543  TIP3      H1             16.1353208849       19.3186660136       41.1496754696  TIP3      2479            0.0000000000
     16013      2543  TIP3      H2             14.9247323913       19.3898618403       42.0006442974  TIP3      2479            0.0000000000
     16014      2544  TIP3      OH2            22.0965682431       18.5715272013       46.6931920309  TIP3      2480            0.0000000000
     16015      2544  TIP3      H1             21.2954107851       18.2439467570       47.1349179429  TIP3      2480            0.0000000000
     16016      2544  TIP3      H2             22.7745151260       18.4251303266       47.3648093648  TIP3      2480            0.0000000000
     16017      2545  TIP3      OH2            17.4272024125       19.8692541677       45.4707095213  TIP3      2481            0.0000000000
     16018      2545  TIP3      H1             16.5726015129       20.0924480763       45.0585448097  TIP3      2481            0.0000000000
     16019      2545  TIP3      H2             17.6935462877       19.0599872260       44.9990888073  TIP3      2481            0.0000000000
     16020      2546  TIP3      OH2            21.1407121396       19.9684959023       43.0536520326  TIP3      2482            0.0000000000
     16021      2546  TIP3      H1             22.0492416464       20.2046394498       43.1966681895  TIP3      2482            0.0000000000
     16022      2546  TIP3      H2             20.8450699818       20.5951768315       42.3568949726  TIP3      2482            0.0000000000
     16023      2547  TIP3      OH2            19.8276748701       21.0949841966       40.6183651648  TIP3      2483            0.0000000000
     16024      2547  TIP3      H1             19.2290008782       20.8145526923       39.9092481372  TIP3      2483            0.0000000000
     16025      2547  TIP3      H2             20.6311176957       21.3837918746       40.1457381570  TIP3      2483            0.0000000000
     16026      2548  TIP3      OH2            18.9230469326       17.2841211521       44.8793131618  TIP3      2484            0.0000000000
     16027      2548  TIP3      H1             18.5784914986       16.3711355988       44.9102993223  TIP3      2484            0.0000000000
     16028      2548  TIP3      H2             19.7003813490       17.1895917720       44.3223284379  TIP3      2484            0.0000000000
     16029      2549  TIP3      OH2            22.4217345932       19.2347707240       51.1141451728  TIP3      2485            0.0000000000
     16030      2549  TIP3      H1             21.7734342576       19.9093835562       50.8106503228  TIP3      2485            0.0000000000
     16031      2549  TIP3      H2             23.0813600724       19.8049901462       51.5092296251  TIP3      2485            0.0000000000
     16032      2550  TIP3      OH2            22.3001631114       22.0641276799       56.1545981951  TIP3      2486            0.0000000000
     16033      2550  TIP3      H1             21.8403427077       22.3833075254       55.3643944741  TIP3      2486            0.0000000000
     16034      2550  TIP3      H2             23.1950734540       22.4507864914       56.1444797822  TIP3      2486            0.0000000000
     16035      2551  TIP3      OH2            16.5536217851      -23.5305370248       39.9444285014  TIP3      2487            0.0000000000
     16036      2551  TIP3      H1             17.1247558330      -23.0278327826       40.5489485598  TIP3      2487            0.0000000000
     16037      2551  TIP3      H2             15.6944654983      -23.3264417237       40.3601208250  TIP3      2487            0.0000000000
     16038      2552  TIP3      OH2            16.8740367058       18.2170093898       53.1602759970  TIP3      2488            0.0000000000
     16039      2552  TIP3      H1             15.9596097276       18.5394876231       53.1484657166  TIP3      2488            0.0000000000
     16040      2552  TIP3      H2             16.7726330059       17.3909534768       53.6550569384  TIP3      2488            0.0000000000
     16041      2553  TIP3      OH2            19.9119632729       17.5058563322       41.6392784951  TIP3      2489            0.0000000000
     16042      2553  TIP3      H1             19.9388198174       18.3931921116       42.0338714198  TIP3      2489            0.0000000000
     16043      2553  TIP3      H2             20.8454322375       17.2425280123       41.8280870517  TIP3      2489            0.0000000000
     16044      2554  TIP3      OH2            16.6514271555       20.5035207527       39.8387362605  TIP3      2490            0.0000000000
     16045      2554  TIP3      H1             16.6895343126       21.4695547673       40.0040237054  TIP3      2490            0.0000000000
     16046      2554  TIP3      H2             15.7827702366       20.3612627062       39.4578182517  TIP3      2490            0.0000000000
     16047      2555  TIP3      OH2            17.4504379239       15.3437582688       48.6099757576  TIP3      2491            0.0000000000
     16048      2555  TIP3      H1             17.3323686034       15.3739407332       47.6333393212  TIP3      2491            0.0000000000
     16049      2555  TIP3      H2             17.0633821577       14.4676395229       48.8197073481  TIP3      2491            0.0000000000
     16050      2556  TIP3      OH2            16.3690111450       22.7013841631       56.2815157230  TIP3      2492            0.0000000000
     16051      2556  TIP3      H1             16.8735701764       21.8866991303       56.3395440453  TIP3      2492            0.0000000000
     16052      2556  TIP3      H2             16.1948854982       22.9310241092       57.2267417958  TIP3      2492            0.0000000000
     16053      2557  TIP3      OH2            20.2672615809       21.9089781815       53.8116674466  TIP3      2493            0.0000000000
     16054      2557  TIP3      H1             19.7797770858       22.7051810820       54.0532979112  TIP3      2493            0.0000000000
     16055      2557  TIP3      H2             20.7177248063       22.1615301775       52.9890057838  TIP3      2493            0.0000000000
     16056      2558  TIP3      OH2            22.2374287368       22.1354022020       39.8485824608  TIP3      2494            0.0000000000
     16057      2558  TIP3      H1             21.9693931920       22.0528258704       38.8971383578  TIP3      2494            0.0000000000
     16058      2558  TIP3      H2             23.1453106139       22.3931984301       39.6864002982  TIP3      2494            0.0000000000
     16059      2559  TIP3      OH2            20.7962143492       19.1317848776       54.6965727246  TIP3      2495            0.0000000000
     16060      2559  TIP3      H1             20.9431846790       18.4474197974       54.0185774811  TIP3      2495            0.0000000000
     16061      2559  TIP3      H2             20.7422308131       19.9621134570       54.1852396290  TIP3      2495            0.0000000000
     16062      2560  TIP3      OH2            21.1249798060       17.4355486955       52.3089878031  TIP3      2496            0.0000000000
     16063      2560  TIP3      H1             21.6445612649       18.0412474744       51.7263441386  TIP3      2496            0.0000000000
     16064      2560  TIP3      H2             20.2405098780       17.5916362631       51.9289596573  TIP3      2496            0.0000000000
     16065      2561  TIP3      OH2            22.9364945497      -24.2011765023       52.4083936948  TIP3      2497            0.0000000000
     16066      2561  TIP3      H1             23.7667042593      -24.0832694483       51.9260491928  TIP3      2497            0.0000000000
     16067      2561  TIP3      H2             22.6165327679      -23.3133036838       52.2243908532  TIP3      2497            0.0000000000
     16068      2562  TIP3      OH2            19.1835166909       20.5400183479       56.6590524530  TIP3      2498            0.0000000000
     16069      2562  TIP3      H1             18.4832649286       19.8718341777       56.5032364302  TIP3      2498            0.0000000000
     16070      2562  TIP3      H2             19.9105908442       20.1990897653       56.0987267472  TIP3      2498            0.0000000000
     16071      2563  TIP3      OH2            21.6598436034       14.9805667875       52.8949643002  TIP3      2499            0.0000000000
     16072      2563  TIP3      H1             21.6034135790       15.9502536182       52.6950495743  TIP3      2499            0.0000000000
     16073      2563  TIP3      H2             21.0391078682       14.6279897509       52.2342592251  TIP3      2499            0.0000000000
     16074      2564  TIP3      OH2            22.8104047794       19.5798479549       56.8517443246  TIP3      2500            0.0000000000
     16075      2564  TIP3      H1             22.7953514583       18.8493062122       57.4592186646  TIP3      2500            0.0000000000
     16076      2564  TIP3      H2             22.2995534373       19.2804813479       56.0697294251  TIP3      2500            0.0000000000
     16077      2565  TIP3      OH2            17.2851446195       18.4598518338       56.4836623586  TIP3      2501            0.0000000000
     16078      2565  TIP3      H1             17.5357226314       17.7226360202       55.8956892104  TIP3      2501            0.0000000000
     16079      2565  TIP3      H2             17.2317430181       18.0112158503       57.3527877565  TIP3      2501            0.0000000000
     16080      2566  TIP3      OH2            22.2050611604       14.4649164193       55.4095628903  TIP3      2502            0.0000000000
     16081      2566  TIP3      H1             22.9391104040       13.8331574134       55.3717667279  TIP3      2502            0.0000000000
     16082      2566  TIP3      H2             22.0287155747       14.6152607558       54.4503869257  TIP3      2502            0.0000000000
     16083      2567  TIP3      OH2            22.5255298952       16.0679290721       57.5365405026  TIP3      2503            0.0000000000
     16084      2567  TIP3      H1             22.3905404613       15.5608956922       56.6987295691  TIP3      2503            0.0000000000
     16085      2567  TIP3      H2             21.9118925322       16.8323796027       57.4791295609  TIP3      2503            0.0000000000
     16086      2568  TIP3      OH2            14.8844473274       19.4223351016       55.6626693662  TIP3      2504            0.0000000000
     16087      2568  TIP3      H1             15.8159017783       19.2237021413       55.8911682434  TIP3      2504            0.0000000000
     16088      2568  TIP3      H2             14.4172823852       18.6095799849       55.9476974663  TIP3      2504            0.0000000000
     16089      2569  TIP3      OH2            16.0544025559       17.7504719026       48.5328816619  TIP3      2505            0.0000000000
     16090      2569  TIP3      H1             16.5045330170       16.9150588149       48.7663156502  TIP3      2505            0.0000000000
     16091      2569  TIP3      H2             16.6547774640       18.4251882143       48.8855153530  TIP3      2505            0.0000000000
     16092      2570  TIP3      OH2            14.3303607840       20.7502393640       49.5239828178  TIP3      2506            0.0000000000
     16093      2570  TIP3      H1             14.9036584118       20.5029554555       48.7680749507  TIP3      2506            0.0000000000
     16094      2570  TIP3      H2             14.7866670657       21.5594673293       49.7933478508  TIP3      2506            0.0000000000
     16095      2571  TIP3      OH2            14.6922176069       17.0480856914       43.6366276401  TIP3      2507            0.0000000000
     16096      2571  TIP3      H1             13.7496839782       17.1822827583       43.4672217530  TIP3      2507            0.0000000000
     16097      2571  TIP3      H2             15.0945315269       17.5241773966       42.8894968838  TIP3      2507            0.0000000000
     16098      2572  TIP3      OH2            14.6412161869       15.6639207266       51.9241960740  TIP3      2508            0.0000000000
     16099      2572  TIP3      H1             13.9760214721       15.4657892705       52.6067709219  TIP3      2508            0.0000000000
     16100      2572  TIP3      H2             14.1808845030       16.3324175999       51.3783476766  TIP3      2508            0.0000000000
     16101      2573  TIP3      OH2            17.2147315090       15.2131962000       45.8135519029  TIP3      2509            0.0000000000
     16102      2573  TIP3      H1             16.4042945018       15.0689839744       45.2959484465  TIP3      2509            0.0000000000
     16103      2573  TIP3      H2             17.6235605709       14.3306883281       45.7413757406  TIP3      2509            0.0000000000
     16104      2574  TIP3      OH2            15.9324184945       14.9792581551       41.4978806276  TIP3      2510            0.0000000000
     16105      2574  TIP3      H1             16.4549388316       15.6368041745       41.0034410525  TIP3      2510            0.0000000000
     16106      2574  TIP3      H2             15.3933687850       15.5455709651       42.0733465957  TIP3      2510            0.0000000000
     16107      2575  TIP3      OH2            21.4902347460       15.3196097645       45.6941957565  TIP3      2511            0.0000000000
     16108      2575  TIP3      H1             22.4351762680       15.4535021162       45.5095062620  TIP3      2511            0.0000000000
     16109      2575  TIP3      H2             21.5455553723       14.9725217839       46.5876362762  TIP3      2511            0.0000000000
     16110      2576  TIP3      OH2            17.7703701239       16.9153263291       40.0517510279  TIP3      2512            0.0000000000
     16111      2576  TIP3      H1             18.3199315765       16.3286750081       39.5073299426  TIP3      2512            0.0000000000
     16112      2576  TIP3      H2             18.4416695975       17.2609278288       40.6723143200  TIP3      2512            0.0000000000
     16113      2577  TIP3      OH2            22.4017815421       17.3259658911       42.0912695678  TIP3      2513            0.0000000000
     16114      2577  TIP3      H1             22.7959276585       16.5897914477       42.5853702594  TIP3      2513            0.0000000000
     16115      2577  TIP3      H2             22.7204523009       18.0897940457       42.5846326329  TIP3      2513            0.0000000000
     16116      2578  TIP3      OH2            17.0530203069       15.7964169284       55.2509979971  TIP3      2514            0.0000000000
     16117      2578  TIP3      H1             16.6664186296       14.9796224770       55.6163291383  TIP3      2514            0.0000000000
     16118      2578  TIP3      H2             17.9542660690       15.7154140102       55.6495453853  TIP3      2514            0.0000000000
     16119      2579  TIP3      OH2            19.0184956022       15.1135021127       56.8390177483  TIP3      2515            0.0000000000
     16120      2579  TIP3      H1             19.9200073236       14.7762390154       56.7011133401  TIP3      2515            0.0000000000
     16121      2579  TIP3      H2             18.6664982478       14.3606918108       57.3593852321  TIP3      2515            0.0000000000
     16122      2580  TIP3      OH2           -11.4255921537      -13.3228665375       64.4952091326  TIP3      2516            0.0000000000
     16123      2580  TIP3      H1            -11.4792893342      -12.3429870612       64.5236352723  TIP3      2516            0.0000000000
     16124      2580  TIP3      H2            -12.1779368467      -13.5547231340       63.9228647686  TIP3      2516            0.0000000000
     16125      2581  TIP3      OH2           -12.5571534568      -14.1242278953       68.0797511186  TIP3      2517            0.0000000000
     16126      2581  TIP3      H1            -12.6171388695      -14.7749832331       68.7869776571  TIP3      2517            0.0000000000
     16127      2581  TIP3      H2            -12.9589097061      -14.6009695391       67.3328701923  TIP3      2517            0.0000000000
     16128      2582  TIP3      OH2           -20.2599035487      -14.3485018671       69.6764697677  TIP3      2518            0.0000000000
     16129      2582  TIP3      H1            -20.1049742327      -15.1092041653       70.2691290362  TIP3      2518            0.0000000000
     16130      2582  TIP3      H2            -19.4304890340      -13.8567201420       69.7693231828  TIP3      2518            0.0000000000
     16131      2583  TIP3      OH2            -8.9366837178      -11.1223389452       66.3080431297  TIP3      2519            0.0000000000
     16132      2583  TIP3      H1             -9.3309778968      -11.8427000674       66.8025497794  TIP3      2519            0.0000000000
     16133      2583  TIP3      H2             -8.8873173294      -10.4294529898       66.9953122088  TIP3      2519            0.0000000000
     16134      2584  TIP3      OH2           -19.3770394237       -9.9356432918       67.9956901083  TIP3      2520            0.0000000000
     16135      2584  TIP3      H1            -19.6325435098      -10.8493469589       67.7624327594  TIP3      2520            0.0000000000
     16136      2584  TIP3      H2            -18.4305583372      -10.0968885467       68.1413214780  TIP3      2520            0.0000000000
     16137      2585  TIP3      OH2           -23.0318628834      -15.4589346248       62.7862998197  TIP3      2521            0.0000000000
     16138      2585  TIP3      H1            -23.3154429298      -15.2250629723       63.6731673043  TIP3      2521            0.0000000000
     16139      2585  TIP3      H2            -22.9486604768      -16.4282743023       62.9590919241  TIP3      2521            0.0000000000
     16140      2586  TIP3      OH2           -21.8931991595      -14.1895104032       65.7922387382  TIP3      2522            0.0000000000
     16141      2586  TIP3      H1            -21.6658738554      -15.0731371639       66.1469817767  TIP3      2522            0.0000000000
     16142      2586  TIP3      H2            -21.2926625316      -14.0804190433       65.0438534135  TIP3      2522            0.0000000000
     16143      2587  TIP3      OH2           -11.8223877852       -5.9810995819       66.5825008234  TIP3      2523            0.0000000000
     16144      2587  TIP3      H1            -11.1574291746       -6.6393178928       66.2622201578  TIP3      2523            0.0000000000
     16145      2587  TIP3      H2            -12.0072112410       -6.3572574637       67.4533758362  TIP3      2523            0.0000000000
     16146      2588  TIP3      OH2           -14.2309045792      -11.6835853454       68.5833336717  TIP3      2524            0.0000000000
     16147      2588  TIP3      H1            -13.9085407941      -12.2698550054       67.8791590788  TIP3      2524            0.0000000000
     16148      2588  TIP3      H2            -13.3838518593      -11.4880696081       69.0142457690  TIP3      2524            0.0000000000
     16149      2589  TIP3      OH2            -5.5809046877      -20.0855765675       69.2485841364  TIP3      2525            0.0000000000
     16150      2589  TIP3      H1             -5.4412734842      -19.4538703835       69.9835208465  TIP3      2525            0.0000000000
     16151      2589  TIP3      H2             -5.0798783508      -19.6338291844       68.5535580167  TIP3      2525            0.0000000000
     16152      2590  TIP3      OH2           -11.1026330073      -17.2451716448       68.8377969655  TIP3      2526            0.0000000000
     16153      2590  TIP3      H1            -10.9016700431      -18.1992844234       68.8702882158  TIP3      2526            0.0000000000
     16154      2590  TIP3      H2            -11.1578339752      -17.1125951224       67.8689796053  TIP3      2526            0.0000000000
     16155      2591  TIP3      OH2           -17.9886080200      -19.0833946584       66.0235891553  TIP3      2527            0.0000000000
     16156      2591  TIP3      H1            -17.8288495380      -18.2885709764       65.4828969296  TIP3      2527            0.0000000000
     16157      2591  TIP3      H2            -18.2784795987      -19.7393974050       65.3586293018  TIP3      2527            0.0000000000
     16158      2592  TIP3      OH2           -10.1648387674      -19.1416154249       64.3696228438  TIP3      2528            0.0000000000
     16159      2592  TIP3      H1             -9.5592137258      -19.4166237908       65.0944625717  TIP3      2528            0.0000000000
     16160      2592  TIP3      H2             -9.6205440784      -18.4771983510       63.9228923063  TIP3      2528            0.0000000000
     16161      2593  TIP3      OH2           -21.1872305569      -16.6672465116       66.6756377424  TIP3      2529            0.0000000000
     16162      2593  TIP3      H1            -20.6300248615      -17.2867320746       67.1685928758  TIP3      2529            0.0000000000
     16163      2593  TIP3      H2            -21.2402345510      -17.0886468436       65.8059148826  TIP3      2529            0.0000000000
     16164      2594  TIP3      OH2           -16.1933987514      -15.1573368558       66.1103323225  TIP3      2530            0.0000000000
     16165      2594  TIP3      H1            -15.5010447348      -15.7432264878       66.4648008589  TIP3      2530            0.0000000000
     16166      2594  TIP3      H2            -16.6607749533      -15.7918850322       65.5265288476  TIP3      2530            0.0000000000
     16167      2595  TIP3      OH2            -5.0665054423      -18.5724350870       71.5475168437  TIP3      2531            0.0000000000
     16168      2595  TIP3      H1             -5.7644521747      -17.9096717471       71.3386369278  TIP3      2531            0.0000000000
     16169      2595  TIP3      H2             -5.2677430079      -18.7768340382       72.4636185587  TIP3      2531            0.0000000000
     16170      2596  TIP3      OH2           -19.0635586468      -20.2171002590       70.0665653032  TIP3      2532            0.0000000000
     16171      2596  TIP3      H1            -19.3281632591      -19.6613541178       69.2974770471  TIP3      2532            0.0000000000
     16172      2596  TIP3      H2            -19.8028089959      -20.0278618296       70.6991609647  TIP3      2532            0.0000000000
     16173      2597  TIP3      OH2           -11.7735082893      -10.7648519732       63.6121188679  TIP3      2533            0.0000000000
     16174      2597  TIP3      H1            -11.9935734914      -11.0072034788       62.6982944363  TIP3      2533            0.0000000000
     16175      2597  TIP3      H2            -12.0637786316       -9.8273583498       63.6659278962  TIP3      2533            0.0000000000
     16176      2598  TIP3      OH2           -16.5124744779      -12.5350858366       70.3812453917  TIP3      2534            0.0000000000
     16177      2598  TIP3      H1            -17.2820677080      -11.9233922543       70.4087691515  TIP3      2534            0.0000000000
     16178      2598  TIP3      H2            -15.8504309894      -11.9306155848       70.0078848008  TIP3      2534            0.0000000000
     16179      2599  TIP3      OH2            -8.4004611980      -19.6566368125       66.4320971340  TIP3      2535            0.0000000000
     16180      2599  TIP3      H1             -8.5919086314      -20.4546321975       66.9495698347  TIP3      2535            0.0000000000
     16181      2599  TIP3      H2             -7.7103404191      -19.2656354049       66.9894613640  TIP3      2535            0.0000000000
     16182      2600  TIP3      OH2           -19.4652253814      -18.3419918730       68.0955952671  TIP3      2536            0.0000000000
     16183      2600  TIP3      H1            -18.8203834991      -17.6582259158       68.3666647551  TIP3      2536            0.0000000000
     16184      2600  TIP3      H2            -18.9655221163      -18.7894578363       67.3632221154  TIP3      2536            0.0000000000
     16185      2601  TIP3      OH2           -18.1010139409      -10.5019669811       70.6784427560  TIP3      2537            0.0000000000
     16186      2601  TIP3      H1            -18.0707536275       -9.5325737145       70.8024536141  TIP3      2537            0.0000000000
     16187      2601  TIP3      H2            -18.8231066683      -10.6737141734       71.3378573269  TIP3      2537            0.0000000000
     16188      2602  TIP3      OH2           -21.5528889070      -10.6962735801       61.8214736104  TIP3      2538            0.0000000000
     16189      2602  TIP3      H1            -22.2895774636      -10.8254663411       61.1889113103  TIP3      2538            0.0000000000
     16190      2602  TIP3      H2            -21.9312883169      -10.1016314487       62.4767596500  TIP3      2538            0.0000000000
     16191      2603  TIP3      OH2            -8.4280908655       -9.3161980482       68.5974364997  TIP3      2539            0.0000000000
     16192      2603  TIP3      H1             -9.3774599414       -9.1357478548       68.7696635857  TIP3      2539            0.0000000000
     16193      2603  TIP3      H2             -8.1077410840       -8.3978343950       68.4739600120  TIP3      2539            0.0000000000
     16194      2604  TIP3      OH2            -8.0560259696      -21.0611586132       70.1073938207  TIP3      2540            0.0000000000
     16195      2604  TIP3      H1             -8.7774584622      -20.4386930818       69.9362152329  TIP3      2540            0.0000000000
     16196      2604  TIP3      H2             -7.3407232792      -20.6070588473       69.6248120896  TIP3      2540            0.0000000000
     16197      2605  TIP3      OH2           -14.9248614584      -22.6421509386       67.6260754814  TIP3      2541            0.0000000000
     16198      2605  TIP3      H1            -15.0647223324      -23.6023539650       67.5379983368  TIP3      2541            0.0000000000
     16199      2605  TIP3      H2            -15.8255590404      -22.3427729825       67.8030456380  TIP3      2541            0.0000000000
     16200      2606  TIP3      OH2           -10.1287720095       -7.5028029425       65.2469767692  TIP3      2542            0.0000000000
     16201      2606  TIP3      H1             -9.7216153200       -8.2387033869       64.7425224400  TIP3      2542            0.0000000000
     16202      2606  TIP3      H2             -9.6341609531       -6.7384737519       64.8797288871  TIP3      2542            0.0000000000
     16203      2607  TIP3      OH2            -8.8987486832       -9.5881996623       63.7849033755  TIP3      2543            0.0000000000
     16204      2607  TIP3      H1             -9.2117658929      -10.2740898009       63.1730376503  TIP3      2543            0.0000000000
     16205      2607  TIP3      H2             -8.8736451799      -10.0864102713       64.6222830112  TIP3      2543            0.0000000000
     16206      2608  TIP3      OH2            -7.2805347910      -10.9634831207       72.2210334028  TIP3      2544            0.0000000000
     16207      2608  TIP3      H1             -7.2393565040      -11.5512643491       71.4493195959  TIP3      2544            0.0000000000
     16208      2608  TIP3      H2             -7.0876074436      -10.0763355214       71.8602052078  TIP3      2544            0.0000000000
     16209      2609  TIP3      OH2           -12.7680230312      -14.1125240652       62.0361240442  TIP3      2545            0.0000000000
     16210      2609  TIP3      H1            -13.4721473464      -13.5288389492       61.6883764136  TIP3      2545            0.0000000000
     16211      2609  TIP3      H2            -12.0632302637      -13.9938071767       61.3761962839  TIP3      2545            0.0000000000
     16212      2610  TIP3      OH2           -12.7047489485      -15.4969153172       59.0381139821  TIP3      2546            0.0000000000
     16213      2610  TIP3      H1            -11.9908247941      -15.4893007360       59.6975141171  TIP3      2546            0.0000000000
     16214      2610  TIP3      H2            -12.4065629671      -16.2421929734       58.5050930445  TIP3      2546            0.0000000000
     16215      2611  TIP3      OH2            -5.4061412333      -14.6276714987       70.3038535967  TIP3      2547            0.0000000000
     16216      2611  TIP3      H1             -6.0382637101      -13.8935155333       70.2549269959  TIP3      2547            0.0000000000
     16217      2611  TIP3      H2             -4.8702537475      -14.4438736620       69.5134731382  TIP3      2547            0.0000000000
     16218      2612  TIP3      OH2            -9.3233389090      -13.9391275229       62.9521615133  TIP3      2548            0.0000000000
     16219      2612  TIP3      H1            -10.0610347402      -13.6666416300       63.5447666783  TIP3      2548            0.0000000000
     16220      2612  TIP3      H2             -8.8344523730      -14.5718437601       63.5067277679  TIP3      2548            0.0000000000
     16221      2613  TIP3      OH2            -9.4891211358      -15.8397400426       72.0050944329  TIP3      2549            0.0000000000
     16222      2613  TIP3      H1             -9.4788324424      -15.0951426728       72.6321106755  TIP3      2549            0.0000000000
     16223      2613  TIP3      H2            -10.1750076116      -15.5585987564       71.3637071007  TIP3      2549            0.0000000000
     16224      2614  TIP3      OH2           -17.7216576282      -13.2270576179       64.8806988798  TIP3      2550            0.0000000000
     16225      2614  TIP3      H1            -18.0328728646      -13.5999099763       64.0191712735  TIP3      2550            0.0000000000
     16226      2614  TIP3      H2            -17.1130398599      -13.9283585653       65.2054833182  TIP3      2550            0.0000000000
     16227      2615  TIP3      OH2           -16.4034975847       -9.8576282906       67.5516149661  TIP3      2551            0.0000000000
     16228      2615  TIP3      H1            -16.4047588919      -10.3508355226       66.7220602451  TIP3      2551            0.0000000000
     16229      2615  TIP3      H2            -15.6305448800      -10.2221562117       68.0133770477  TIP3      2551            0.0000000000
     16230      2616  TIP3      OH2           -17.3929765462      -14.5616847515       68.5943391648  TIP3      2552            0.0000000000
     16231      2616  TIP3      H1            -16.9096787138      -14.4287481509       67.7529596141  TIP3      2552            0.0000000000
     16232      2616  TIP3      H2            -17.0333413328      -13.8333118621       69.1472633887  TIP3      2552            0.0000000000
     16233      2617  TIP3      OH2           -10.9986317862       -8.9152692040       69.2678592080  TIP3      2553            0.0000000000
     16234      2617  TIP3      H1            -11.2267039872       -8.2532056453       69.9395492308  TIP3      2553            0.0000000000
     16235      2617  TIP3      H2            -11.2502461801       -9.7671534174       69.6894627053  TIP3      2553            0.0000000000
     16236      2618  TIP3      OH2           -10.4441512468      -14.6611987693       60.5992114942  TIP3      2554            0.0000000000
     16237      2618  TIP3      H1             -9.9054103525      -14.4980017155       61.4124893175  TIP3      2554            0.0000000000
     16238      2618  TIP3      H2             -9.9704587316      -14.1695672399       59.8832628985  TIP3      2554            0.0000000000
     16239      2619  TIP3      OH2           -12.7577634685       -7.9735449470       64.0875807492  TIP3      2555            0.0000000000
     16240      2619  TIP3      H1            -12.3473855009       -7.6530579568       64.8995471616  TIP3      2555            0.0000000000
     16241      2619  TIP3      H2            -13.2962383976       -7.2230168334       63.8035809203  TIP3      2555            0.0000000000
     16242      2620  TIP3      OH2            -6.7065949694      -22.9630516349       60.5208109295  TIP3      2556            0.0000000000
     16243      2620  TIP3      H1             -7.6136496164      -22.8080238829       60.8259001365  TIP3      2556            0.0000000000
     16244      2620  TIP3      H2             -6.4783958747      -22.1026868353       60.1280181461  TIP3      2556            0.0000000000
     16245      2621  TIP3      OH2           -18.7014202772      -14.2304946123       62.4704823458  TIP3      2557            0.0000000000
     16246      2621  TIP3      H1            -19.0479641032      -13.4440779701       61.9942324100  TIP3      2557            0.0000000000
     16247      2621  TIP3      H2            -19.3766567497      -14.8935074183       62.2957951641  TIP3      2557            0.0000000000
     16248      2622  TIP3      OH2            -5.6256950754       -8.6096995758       58.8766617615  TIP3      2558            0.0000000000
     16249      2622  TIP3      H1             -5.4573294436       -7.6677476333       59.0402924294  TIP3      2558            0.0000000000
     16250      2622  TIP3      H2             -4.7107037315       -8.9438052604       58.9185740603  TIP3      2558            0.0000000000
     16251      2623  TIP3      OH2           -22.6314883591      -11.7416008158       71.3448745718  TIP3      2559            0.0000000000
     16252      2623  TIP3      H1            -22.9969055120      -11.8545156040       70.4610563758  TIP3      2559            0.0000000000
     16253      2623  TIP3      H2            -22.6083270956      -12.6541591947       71.6428806578  TIP3      2559            0.0000000000
     16254      2624  TIP3      OH2           -22.8825188900       -9.0411468786       68.1458954725  TIP3      2560            0.0000000000
     16255      2624  TIP3      H1            -21.9257708164       -9.1929407096       68.1525594979  TIP3      2560            0.0000000000
     16256      2624  TIP3      H2            -22.9914728263       -8.2851044073       68.7403928738  TIP3      2560            0.0000000000
     16257      2625  TIP3      OH2           -13.2590646415       -5.0741849569       62.4935754377  TIP3      2561            0.0000000000
     16258      2625  TIP3      H1            -13.3865291593       -5.1288547776       61.5283373561  TIP3      2561            0.0000000000
     16259      2625  TIP3      H2            -13.2748403193       -4.1149256086       62.6699335971  TIP3      2561            0.0000000000
     16260      2626  TIP3      OH2           -19.6268182171       -6.1874604248       64.3204330789  TIP3      2562            0.0000000000
     16261      2626  TIP3      H1            -19.4932980756       -6.5957168675       65.2021263935  TIP3      2562            0.0000000000
     16262      2626  TIP3      H2            -20.4669639710       -6.6187974216       64.0852014566  TIP3      2562            0.0000000000
     16263      2627  TIP3      OH2           -10.2057344917       -5.8337434892       59.4822146444  TIP3      2563            0.0000000000
     16264      2627  TIP3      H1             -9.7546688037       -6.5824531809       59.0160511902  TIP3      2563            0.0000000000
     16265      2627  TIP3      H2            -10.1768244840       -6.1218172771       60.4121902386  TIP3      2563            0.0000000000
     16266      2628  TIP3      OH2           -10.5247134623       -5.9012859083       62.2814997626  TIP3      2564            0.0000000000
     16267      2628  TIP3      H1            -11.4922440881       -5.8268785112       62.4146708234  TIP3      2564            0.0000000000
     16268      2628  TIP3      H2            -10.3168872253       -6.6639657042       62.8416794272  TIP3      2564            0.0000000000
     16269      2629  TIP3      OH2           -20.2658405193      -10.6681748642      -72.8993992870  TIP3      2565            0.0000000000
     16270      2629  TIP3      H1            -20.2035043635      -10.6991970369      -71.9280471697  TIP3      2565            0.0000000000
     16271      2629  TIP3      H2            -21.2022737564      -10.8691030297      -73.0654540178  TIP3      2565            0.0000000000
     16272      2630  TIP3      OH2           -17.6838646616      -21.4401961852       68.1112036707  TIP3      2566            0.0000000000
     16273      2630  TIP3      H1            -18.5455159374      -21.8481479639       67.8295168564  TIP3      2566            0.0000000000
     16274      2630  TIP3      H2            -17.9731963251      -20.9551732312       68.9010890873  TIP3      2566            0.0000000000
     16275      2631  TIP3      OH2           -13.1458509243      -22.0309238863       71.9365614323  TIP3      2567            0.0000000000
     16276      2631  TIP3      H1            -12.6272694826      -22.7133326127       72.3718971050  TIP3      2567            0.0000000000
     16277      2631  TIP3      H2            -14.0065215079      -22.4507540446       71.8655200032  TIP3      2567            0.0000000000
     16278      2632  TIP3      OH2            -8.9976177601      -13.6438591233       58.5288686816  TIP3      2568            0.0000000000
     16279      2632  TIP3      H1             -9.0789339849      -13.8166385603       57.5642209045  TIP3      2568            0.0000000000
     16280      2632  TIP3      H2             -8.1508891637      -13.1750853788       58.5113413738  TIP3      2568            0.0000000000
     16281      2633  TIP3      OH2           -13.4000510654      -19.7359134982       58.9852618650  TIP3      2569            0.0000000000
     16282      2633  TIP3      H1            -13.7542565761      -19.8141377669       59.8849278028  TIP3      2569            0.0000000000
     16283      2633  TIP3      H2            -13.7468785655      -20.5791233632       58.6288628772  TIP3      2569            0.0000000000
     16284      2634  TIP3      OH2           -17.5845878442      -17.0210902924       69.5961459663  TIP3      2570            0.0000000000
     16285      2634  TIP3      H1            -18.3621783708      -17.0220633278       70.1787354632  TIP3      2570            0.0000000000
     16286      2634  TIP3      H2            -17.6437848798      -16.1316869022       69.1714054284  TIP3      2570            0.0000000000
     16287      2635  TIP3      OH2           -17.5110326530      -16.8598046782       64.3967903966  TIP3      2571            0.0000000000
     16288      2635  TIP3      H1            -18.4774101496      -17.0900273622       64.3272919341  TIP3      2571            0.0000000000
     16289      2635  TIP3      H2            -17.2326703928      -17.1953545068       63.5227365087  TIP3      2571            0.0000000000
     16290      2636  TIP3      OH2           -12.1055449678      -16.3763512477       63.1716035441  TIP3      2572            0.0000000000
     16291      2636  TIP3      H1            -12.4915621954      -15.5509684731       62.7956567552  TIP3      2572            0.0000000000
     16292      2636  TIP3      H2            -11.4342386397      -16.5729881355       62.4975265034  TIP3      2572            0.0000000000
     16293      2637  TIP3      OH2           -11.0713523457      -16.8792602847       66.0347899839  TIP3      2573            0.0000000000
     16294      2637  TIP3      H1            -11.3913976416      -16.3209682909       65.3054086476  TIP3      2573            0.0000000000
     16295      2637  TIP3      H2            -11.0102458841      -17.7345479280       65.5761955613  TIP3      2573            0.0000000000
     16296      2638  TIP3      OH2           -19.9136711240      -16.7501443857       71.2065275913  TIP3      2574            0.0000000000
     16297      2638  TIP3      H1            -19.9441351790      -16.4272551867       72.1198884778  TIP3      2574            0.0000000000
     16298      2638  TIP3      H2            -20.3876039120      -17.5958904462       71.3571400024  TIP3      2574            0.0000000000
     16299      2639  TIP3      OH2           -16.6400719710      -19.3921435299       58.0720869698  TIP3      2575            0.0000000000
     16300      2639  TIP3      H1            -17.1220315942      -19.8099569813       58.8231316269  TIP3      2575            0.0000000000
     16301      2639  TIP3      H2            -17.3294867473      -18.9589339607       57.5495098452  TIP3      2575            0.0000000000
     16302      2640  TIP3      OH2           -22.8293055136      -20.5955547196       65.3089036387  TIP3      2576            0.0000000000
     16303      2640  TIP3      H1            -22.4615991775      -19.8606576311       65.8253142566  TIP3      2576            0.0000000000
     16304      2640  TIP3      H2            -22.7923656186      -20.1542314772       64.4334468315  TIP3      2576            0.0000000000
     16305      2641  TIP3      OH2           -22.0603920395      -18.8628814903       60.5652786712  TIP3      2577            0.0000000000
     16306      2641  TIP3      H1            -21.5033705455      -18.3011260074       60.0117397748  TIP3      2577            0.0000000000
     16307      2641  TIP3      H2            -22.6928023419      -18.2502477984       60.9463231567  TIP3      2577            0.0000000000
     16308      2642  TIP3      OH2           -11.8038678307      -15.3092426887       70.6457399072  TIP3      2578            0.0000000000
     16309      2642  TIP3      H1            -11.5576131830      -16.0027072703       69.9951971641  TIP3      2578            0.0000000000
     16310      2642  TIP3      H2            -12.3647856471      -15.8491338186       71.2337754639  TIP3      2578            0.0000000000
     16311      2643  TIP3      OH2           -15.1077946220      -19.2718100372       65.4186884257  TIP3      2579            0.0000000000
     16312      2643  TIP3      H1            -16.0387784649      -19.3968667756       65.6908054459  TIP3      2579            0.0000000000
     16313      2643  TIP3      H2            -14.6331055082      -19.5579509750       66.2157026473  TIP3      2579            0.0000000000
     16314      2644  TIP3      OH2           -19.9147904357      -17.7340368414       64.1468527633  TIP3      2580            0.0000000000
     16315      2644  TIP3      H1            -20.8611639686      -17.6032036917       63.9200814232  TIP3      2580            0.0000000000
     16316      2644  TIP3      H2            -19.8605257670      -18.6786277736       63.8905963016  TIP3      2580            0.0000000000
     16317      2645  TIP3      OH2           -16.6408786679      -17.7403139056       61.9038415472  TIP3      2581            0.0000000000
     16318      2645  TIP3      H1            -15.6823935431      -17.6416354491       62.0481794111  TIP3      2581            0.0000000000
     16319      2645  TIP3      H2            -16.8797924978      -17.0468689276       61.2574696797  TIP3      2581            0.0000000000
     16320      2646  TIP3      OH2           -10.6802433772      -20.1866980676       68.5850071385  TIP3      2582            0.0000000000
     16321      2646  TIP3      H1            -11.3300337905      -20.0970043456       69.3099191240  TIP3      2582            0.0000000000
     16322      2646  TIP3      H2            -11.2122735045      -20.4631910513       67.8320739961  TIP3      2582            0.0000000000
     16323      2647  TIP3      OH2           -17.9445778714      -16.5505096405       59.4757664733  TIP3      2583            0.0000000000
     16324      2647  TIP3      H1            -18.4389333018      -16.9632080234       58.7525888758  TIP3      2583            0.0000000000
     16325      2647  TIP3      H2            -17.1119875796      -16.3503610014       59.0199991737  TIP3      2583            0.0000000000
     16326      2648  TIP3      OH2           -13.8064211572      -16.5897019625       67.3110850374  TIP3      2584            0.0000000000
     16327      2648  TIP3      H1            -13.2228491955      -17.1199389972       66.7583607876  TIP3      2584            0.0000000000
     16328      2648  TIP3      H2            -13.9751464874      -17.1906779637       68.0480943474  TIP3      2584            0.0000000000
     16329      2649  TIP3      OH2           -18.8826927125      -20.4181467087       63.7038023043  TIP3      2585            0.0000000000
     16330      2649  TIP3      H1            -19.1910128770      -21.3408331037       63.7980565868  TIP3      2585            0.0000000000
     16331      2649  TIP3      H2            -18.0609252288      -20.5577757003       63.2089798176  TIP3      2585            0.0000000000
     16332      2650  TIP3      OH2           -15.1263128484      -18.2898964340       69.7077242463  TIP3      2586            0.0000000000
     16333      2650  TIP3      H1            -15.9326560200      -17.7299593259       69.7338503885  TIP3      2586            0.0000000000
     16334      2650  TIP3      H2            -14.5740022254      -17.9042421233       70.4116641374  TIP3      2586            0.0000000000
     16335      2651  TIP3      OH2           -14.5819626710      -12.1195334453       61.4694504933  TIP3      2587            0.0000000000
     16336      2651  TIP3      H1            -15.4027297565      -12.5191175471       61.0892656356  TIP3      2587            0.0000000000
     16337      2651  TIP3      H2            -14.8641422419      -11.9240684974       62.3886454484  TIP3      2587            0.0000000000
     16338      2652  TIP3      OH2            -7.3890183689      -12.8143979976       70.2615311948  TIP3      2588            0.0000000000
     16339      2652  TIP3      H1             -6.8179759781      -12.3328362180       69.6199131437  TIP3      2588            0.0000000000
     16340      2652  TIP3      H2             -8.2096962083      -12.8538238037       69.7222467647  TIP3      2588            0.0000000000
     16341      2653  TIP3      OH2           -10.7667729864      -19.2275457816       59.5814283836  TIP3      2589            0.0000000000
     16342      2653  TIP3      H1            -11.7219608886      -19.0758361091       59.4452268100  TIP3      2589            0.0000000000
     16343      2653  TIP3      H2            -10.4163355034      -18.3907121540       59.9477684247  TIP3      2589            0.0000000000
     16344      2654  TIP3      OH2           -10.0306074449      -17.2831112866       61.1774812365  TIP3      2590            0.0000000000
     16345      2654  TIP3      H1             -9.1641590591      -17.4255879617       61.6242544622  TIP3      2590            0.0000000000
     16346      2654  TIP3      H2             -9.9013738809      -16.4570720915       60.6844538136  TIP3      2590            0.0000000000
     16347      2655  TIP3      OH2           -19.4504945898      -12.5890835544       67.2416172443  TIP3      2591            0.0000000000
     16348      2655  TIP3      H1            -18.8604788725      -12.7017139947       66.4733265904  TIP3      2591            0.0000000000
     16349      2655  TIP3      H2            -19.3974176050      -13.4475188579       67.6864157319  TIP3      2591            0.0000000000
     16350      2656  TIP3      OH2           -12.5068576738      -10.6131990118       60.4896204477  TIP3      2592            0.0000000000
     16351      2656  TIP3      H1            -12.8412679194       -9.7333083468       60.7725201781  TIP3      2592            0.0000000000
     16352      2656  TIP3      H2            -13.2493907430      -11.2116722161       60.7064085364  TIP3      2592            0.0000000000
     16353      2657  TIP3      OH2            -5.1417869534      -17.1651091237       60.9905143961  TIP3      2593            0.0000000000
     16354      2657  TIP3      H1             -5.6818719323      -17.4451798259       60.2252884818  TIP3      2593            0.0000000000
     16355      2657  TIP3      H2             -5.0596887806      -16.2098436853       60.7655714999  TIP3      2593            0.0000000000
     16356      2658  TIP3      OH2            -6.8843147240       -8.3477741082       61.3557066908  TIP3      2594            0.0000000000
     16357      2658  TIP3      H1             -7.1948999462       -9.1810525788       61.7305517300  TIP3      2594            0.0000000000
     16358      2658  TIP3      H2             -6.5277589026       -8.5871802903       60.4831403868  TIP3      2594            0.0000000000
     16359      2659  TIP3      OH2            -9.6193362921      -13.4800781736       68.5285898137  TIP3      2595            0.0000000000
     16360      2659  TIP3      H1            -10.5544609402      -13.7019666552       68.3681421821  TIP3      2595            0.0000000000
     16361      2659  TIP3      H2             -9.1844622079      -14.2276985809       68.0700045582  TIP3      2595            0.0000000000
     16362      2660  TIP3      OH2           -17.0971953302       -9.1694328340       64.6194850140  TIP3      2596            0.0000000000
     16363      2660  TIP3      H1            -16.6035450772       -8.3615161633       64.4038205148  TIP3      2596            0.0000000000
     16364      2660  TIP3      H2            -17.9698939891       -8.9563302065       64.2590282928  TIP3      2596            0.0000000000
     16365      2661  TIP3      OH2           -21.5016802530      -14.3240701389       59.1797456101  TIP3      2597            0.0000000000
     16366      2661  TIP3      H1            -20.7950827358      -13.7379285294       59.5318742074  TIP3      2597            0.0000000000
     16367      2661  TIP3      H2            -22.2795989180      -13.8814992757       59.5416360496  TIP3      2597            0.0000000000
     16368      2662  TIP3      OH2           -15.7132881848      -11.5081081182       64.0652859097  TIP3      2598            0.0000000000
     16369      2662  TIP3      H1            -16.0365286055      -10.5954843289       64.1943181944  TIP3      2598            0.0000000000
     16370      2662  TIP3      H2            -16.4019081298      -12.0270237308       64.5273988382  TIP3      2598            0.0000000000
     16371      2663  TIP3      OH2           -15.2167617995       -7.3228396985       70.4330939406  TIP3      2599            0.0000000000
     16372      2663  TIP3      H1            -14.7384872550       -6.5155534834       70.2109283531  TIP3      2599            0.0000000000
     16373      2663  TIP3      H2            -14.6181135907       -7.6345289633       71.1336088476  TIP3      2599            0.0000000000
     16374      2664  TIP3      OH2           -17.0066580411       -6.5465037659       63.6142431145  TIP3      2600            0.0000000000
     16375      2664  TIP3      H1            -17.9720722306       -6.4149941891       63.7745342432  TIP3      2600            0.0000000000
     16376      2664  TIP3      H2            -16.6389533601       -5.7034586874       63.9398927204  TIP3      2600            0.0000000000
     16377      2665  TIP3      OH2           -11.7585673070      -11.3494472949       70.1477672439  TIP3      2601            0.0000000000
     16378      2665  TIP3      H1            -12.0107325702      -11.5295689031       71.0612829070  TIP3      2601            0.0000000000
     16379      2665  TIP3      H2            -11.0731824810      -12.0069757093       69.9594778361  TIP3      2601            0.0000000000
     16380      2666  TIP3      OH2            -9.3212389565      -10.2394606779       59.2800077861  TIP3      2602            0.0000000000
     16381      2666  TIP3      H1             -9.0831088105      -10.7649313475       60.0684335344  TIP3      2602            0.0000000000
     16382      2666  TIP3      H2            -10.2755191336      -10.4101014180       59.2526047746  TIP3      2602            0.0000000000
     16383      2667  TIP3      OH2            -4.9066764797       -5.9075135788       59.4961181553  TIP3      2603            0.0000000000
     16384      2667  TIP3      H1             -4.2356848589       -5.2352587408       59.2697657781  TIP3      2603            0.0000000000
     16385      2667  TIP3      H2             -5.6271419018       -5.3073134679       59.7834784006  TIP3      2603            0.0000000000
     16386      2668  TIP3      OH2           -20.9274506244      -19.5118781785       71.8012200578  TIP3      2604            0.0000000000
     16387      2668  TIP3      H1            -21.8334020156      -19.2263772820       71.9300849079  TIP3      2604            0.0000000000
     16388      2668  TIP3      H2            -20.8603091420      -20.2541291922       72.4468999076  TIP3      2604            0.0000000000
     16389      2669  TIP3      OH2            -8.6059283103      -11.6249962216       61.5217606054  TIP3      2605            0.0000000000
     16390      2669  TIP3      H1             -8.8403001205      -12.4358678219       62.0190284751  TIP3      2605            0.0000000000
     16391      2669  TIP3      H2             -7.6437949828      -11.6069155505       61.6449612802  TIP3      2605            0.0000000000
     16392      2670  TIP3      OH2           -21.1982321089       -7.7243413745       70.4528850731  TIP3      2606            0.0000000000
     16393      2670  TIP3      H1            -20.8397709369       -8.6241726933       70.4082835120  TIP3      2606            0.0000000000
     16394      2670  TIP3      H2            -20.8570728313       -7.3980868776       71.3062298203  TIP3      2606            0.0000000000
     16395      2671  TIP3      OH2           -15.2717610272       -9.1867758659       57.7225489488  TIP3      2607            0.0000000000
     16396      2671  TIP3      H1            -15.1385685974       -9.9430357364       57.1320632892  TIP3      2607            0.0000000000
     16397      2671  TIP3      H2            -15.7170344894       -9.6230863392       58.4785793619  TIP3      2607            0.0000000000
     16398      2672  TIP3      OH2           -16.5055712088       -9.6678836250       60.2091792515  TIP3      2608            0.0000000000
     16399      2672  TIP3      H1            -16.1622115149      -10.1776170936       60.9537871031  TIP3      2608            0.0000000000
     16400      2672  TIP3      H2            -16.4220162258       -8.7421813639       60.5291891626  TIP3      2608            0.0000000000
     16401      2673  TIP3      OH2           -19.9262060077      -12.4484238298       60.6594293358  TIP3      2609            0.0000000000
     16402      2673  TIP3      H1            -20.6549227305      -12.0007593124       61.1510202881  TIP3      2609            0.0000000000
     16403      2673  TIP3      H2            -19.4158038940      -11.6648628602       60.3856897089  TIP3      2609            0.0000000000
     16404      2674  TIP3      OH2           -12.0639397262      -19.7457326128       70.9570204845  TIP3      2610            0.0000000000
     16405      2674  TIP3      H1            -11.4142575347      -19.7013477761       71.6646875892  TIP3      2610            0.0000000000
     16406      2674  TIP3      H2            -12.4857445106      -20.5962579474       71.1932822162  TIP3      2610            0.0000000000
     16407      2675  TIP3      OH2           -11.2079304338      -20.2554052147       62.0868683057  TIP3      2611            0.0000000000
     16408      2675  TIP3      H1            -11.1470204187      -19.7179066392       61.2690775655  TIP3      2611            0.0000000000
     16409      2675  TIP3      H2            -10.8161952891      -19.6514514645       62.7443420285  TIP3      2611            0.0000000000
     16410      2676  TIP3      OH2           -13.6681217822       -7.9785606999       60.9281554449  TIP3      2612            0.0000000000
     16411      2676  TIP3      H1            -14.4998311653       -7.4668262844       60.9494512187  TIP3      2612            0.0000000000
     16412      2676  TIP3      H2            -13.1483569470       -7.4789399592       60.2763120063  TIP3      2612            0.0000000000
     16413      2677  TIP3      OH2           -14.0851867122      -18.4483581124       62.8951488879  TIP3      2613            0.0000000000
     16414      2677  TIP3      H1            -13.3497067005      -17.8151369943       62.9654689397  TIP3      2613            0.0000000000
     16415      2677  TIP3      H2            -14.4054513920      -18.5558079687       63.8166764786  TIP3      2613            0.0000000000
     16416      2678  TIP3      OH2           -13.3333974217      -17.3032317799       71.9522101228  TIP3      2614            0.0000000000
     16417      2678  TIP3      H1            -13.6530985248      -16.9768432613       72.8118902227  TIP3      2614            0.0000000000
     16418      2678  TIP3      H2            -13.0541313219      -18.2087865924       72.1663629515  TIP3      2614            0.0000000000
     16419      2679  TIP3      OH2           -13.2984910641      -21.3309975304       63.8344995350  TIP3      2615            0.0000000000
     16420      2679  TIP3      H1            -13.6373839924      -20.6579917275       64.4453527354  TIP3      2615            0.0000000000
     16421      2679  TIP3      H2            -12.6319963660      -20.8207110767       63.3297333568  TIP3      2615            0.0000000000
     16422      2680  TIP3      OH2           -16.2614371058       -6.9847889423       60.9012263344  TIP3      2616            0.0000000000
     16423      2680  TIP3      H1            -16.1841039011       -6.1756735653       60.3415162955  TIP3      2616            0.0000000000
     16424      2680  TIP3      H2            -16.5480913495       -6.6066167617       61.7641820066  TIP3      2616            0.0000000000
     16425      2681  TIP3      OH2           -17.6615904667      -20.2105063255       60.4463295073  TIP3      2617            0.0000000000
     16426      2681  TIP3      H1            -17.7060195923      -19.3602472893       60.9200708940  TIP3      2617            0.0000000000
     16427      2681  TIP3      H2            -16.7646351451      -20.5063717970       60.7206523080  TIP3      2617            0.0000000000
     16428      2682  TIP3      OH2            -8.7771911586      -15.7065857251       66.9187833922  TIP3      2618            0.0000000000
     16429      2682  TIP3      H1             -9.6063098460      -16.1666788436       66.6735698896  TIP3      2618            0.0000000000
     16430      2682  TIP3      H2             -8.2654738619      -16.4089777659       67.3796498715  TIP3      2618            0.0000000000
     16431      2683  TIP3      OH2           -19.3588932254       -9.7908137986       59.5124381082  TIP3      2619            0.0000000000
     16432      2683  TIP3      H1            -18.6611430640       -9.2023815631       59.8324294223  TIP3      2619            0.0000000000
     16433      2683  TIP3      H2            -18.8769985252      -10.3054200445       58.8421550972  TIP3      2619            0.0000000000
     16434      2684  TIP3      OH2           -21.0762997757      -17.0749539598       58.5317975113  TIP3      2620            0.0000000000
     16435      2684  TIP3      H1            -21.1046597497      -16.1950775816       58.9449266180  TIP3      2620            0.0000000000
     16436      2684  TIP3      H2            -21.9937419640      -17.3149371279       58.3721702462  TIP3      2620            0.0000000000
     16437      2685  TIP3      OH2            -7.7274755059       -6.4849135977       68.5855915092  TIP3      2621            0.0000000000
     16438      2685  TIP3      H1             -7.8144062188       -5.7817339208       67.9077456191  TIP3      2621            0.0000000000
     16439      2685  TIP3      H2             -6.7746820428       -6.4040734677       68.7886103826  TIP3      2621            0.0000000000
     16440      2686  TIP3      OH2           -20.1456827717      -22.2725648016       67.3392993666  TIP3      2622            0.0000000000
     16441      2686  TIP3      H1            -20.4570241560      -22.2946490876       66.4050314041  TIP3      2622            0.0000000000
     16442      2686  TIP3      H2            -20.5714848881      -23.0899913988       67.6733103120  TIP3      2622            0.0000000000
     16443      2687  TIP3      OH2           -21.2696741849       -8.3729607170       63.6419353118  TIP3      2623            0.0000000000
     16444      2687  TIP3      H1            -22.1304300363       -7.9649071901       63.5084230463  TIP3      2623            0.0000000000
     16445      2687  TIP3      H2            -20.8290178465       -8.0537088425       62.8465671591  TIP3      2623            0.0000000000
     16446      2688  TIP3      OH2           -13.3817108773       -7.3780452431       58.1183269098  TIP3      2624            0.0000000000
     16447      2688  TIP3      H1            -14.0083392025       -8.1269994279       58.0677223644  TIP3      2624            0.0000000000
     16448      2688  TIP3      H2            -12.6333253093       -7.7201978388       57.5859513850  TIP3      2624            0.0000000000
     16449      2689  TIP3      OH2            -8.6307789866       -7.5551819689       58.1259492575  TIP3      2625            0.0000000000
     16450      2689  TIP3      H1             -8.4223100729       -8.4134327936       58.5302677322  TIP3      2625            0.0000000000
     16451      2689  TIP3      H2             -7.9630715564       -7.4372929109       57.4410359035  TIP3      2625            0.0000000000
     16452      2690  TIP3      OH2           -17.8141001759      -11.6698059120       57.8265395238  TIP3      2626            0.0000000000
     16453      2690  TIP3      H1            -17.6784559030      -12.4049170554       58.4408418605  TIP3      2626            0.0000000000
     16454      2690  TIP3      H2            -17.0316759887      -11.7879863113       57.2549365452  TIP3      2626            0.0000000000
     16455      2691  TIP3      OH2           -12.4664938217      -10.5312880997       57.6319823914  TIP3      2627            0.0000000000
     16456      2691  TIP3      H1            -12.6340088819      -10.4817576085       58.5810577739  TIP3      2627            0.0000000000
     16457      2691  TIP3      H2            -12.5431743954      -11.4975458879       57.4705527930  TIP3      2627            0.0000000000
     16458      2692  TIP3      OH2           -16.5751024565      -13.6345929690       60.3218201241  TIP3      2628            0.0000000000
     16459      2692  TIP3      H1            -17.1247411161      -14.1811596659       60.9025675254  TIP3      2628            0.0000000000
     16460      2692  TIP3      H2            -16.2660861367      -14.2904641543       59.6589864031  TIP3      2628            0.0000000000
     16461      2693  TIP3      OH2           -15.5535668789      -15.3936387768       58.4801569170  TIP3      2629            0.0000000000
     16462      2693  TIP3      H1            -15.6814658191      -15.4647424724       57.5139849479  TIP3      2629            0.0000000000
     16463      2693  TIP3      H2            -14.5739953499      -15.3820074246       58.5629629529  TIP3      2629            0.0000000000
     16464      2694  TIP3      OH2            -6.2168969115      -13.1124966873       57.8819531454  TIP3      2630            0.0000000000
     16465      2694  TIP3      H1             -6.3995257643      -13.4534610110       56.9884573692  TIP3      2630            0.0000000000
     16466      2694  TIP3      H2             -6.1513698466      -12.1372850091       57.7163688702  TIP3      2630            0.0000000000
     16467      2695  TIP3      OH2           -16.5495741880      -20.2779596561       70.6977917429  TIP3      2631            0.0000000000
     16468      2695  TIP3      H1            -16.0486210903      -19.5174208668       70.3367290459  TIP3      2631            0.0000000000
     16469      2695  TIP3      H2            -17.4880104158      -20.0328353498       70.5945592697  TIP3      2631            0.0000000000
     16470      2696  TIP3      OH2           -14.8932467743      -14.5531891906       71.1961818351  TIP3      2632            0.0000000000
     16471      2696  TIP3      H1            -14.1214255725      -14.6683888524       70.6375019624  TIP3      2632            0.0000000000
     16472      2696  TIP3      H2            -15.3092483618      -13.6983486133       70.9709506440  TIP3      2632            0.0000000000
     16473      2697  TIP3      OH2           -16.2855269890      -22.4123423743       71.9754761661  TIP3      2633            0.0000000000
     16474      2697  TIP3      H1            -16.1272640110      -21.5331895390       71.5540226896  TIP3      2633            0.0000000000
     16475      2697  TIP3      H2            -16.6157273018      -22.8940385002       71.2150842616  TIP3      2633            0.0000000000
     16476      2698  TIP3      OH2           -15.6950379727       -4.6698023664       59.6035109503  TIP3      2634            0.0000000000
     16477      2698  TIP3      H1            -14.7211468441       -4.6819949220       59.6268405013  TIP3      2634            0.0000000000
     16478      2698  TIP3      H2            -15.8068790544       -4.1538990848       58.7936873662  TIP3      2634            0.0000000000
     16479      2699  TIP3      OH2           -22.0469940137      -10.0629781408       58.9833108299  TIP3      2635            0.0000000000
     16480      2699  TIP3      H1            -21.1007512050      -10.0400427626       59.2409857636  TIP3      2635            0.0000000000
     16481      2699  TIP3      H2            -22.0634478632      -10.7561558984       58.2975109538  TIP3      2635            0.0000000000
     16482      2700  TIP3      OH2            23.5897958771       -5.0023767658       63.7500168445  TIP3      2636            0.0000000000
     16483      2700  TIP3      H1             22.6711896596       -5.1973014614       63.5536309853  TIP3      2636            0.0000000000
     16484      2700  TIP3      H2             23.7180470021       -5.4155286005       64.6337607860  TIP3      2636            0.0000000000
     16485      2701  TIP3      OH2           -22.5194859136       -6.6155193941       65.8316810826  TIP3      2637            0.0000000000
     16486      2701  TIP3      H1            -22.8204707725       -7.5012650879       66.0641477225  TIP3      2637            0.0000000000
     16487      2701  TIP3      H2            -22.2392495786       -6.2431125422       66.6962282186  TIP3      2637            0.0000000000
     16488      2702  TIP3      OH2            -5.0027462330       -5.7812833491       68.7728282645  TIP3      2638            0.0000000000
     16489      2702  TIP3      H1             -4.9777417486       -5.6926944568       69.7457140493  TIP3      2638            0.0000000000
     16490      2702  TIP3      H2             -4.2580726281       -5.2325642130       68.5200036705  TIP3      2638            0.0000000000
     16491      2703  TIP3      OH2            -5.2507325952       -6.2490150474       71.5906703262  TIP3      2639            0.0000000000
     16492      2703  TIP3      H1             -5.9041392176       -6.9435042997       71.3590395340  TIP3      2639            0.0000000000
     16493      2703  TIP3      H2             -4.9414887566       -6.5852222453       72.4427869897  TIP3      2639            0.0000000000
     16494      2704  TIP3      OH2            -5.6616205741      -12.1682256998       61.8256879827  TIP3      2640            0.0000000000
     16495      2704  TIP3      H1             -4.7927872722      -11.7848694254       62.0231214019  TIP3      2640            0.0000000000
     16496      2704  TIP3      H2             -5.6948319950      -12.8693427244       62.5117656151  TIP3      2640            0.0000000000
     16497      2705  TIP3      OH2            -5.3224283157      -14.0815225557       63.7380458290  TIP3      2641            0.0000000000
     16498      2705  TIP3      H1             -6.0819341143      -14.5720614896       64.1278546202  TIP3      2641            0.0000000000
     16499      2705  TIP3      H2             -4.7199710321      -13.9828314678       64.5055937841  TIP3      2641            0.0000000000
     16500      2706  TIP3      OH2            -5.6099618055      -11.4720541998       68.7005027990  TIP3      2642            0.0000000000
     16501      2706  TIP3      H1             -4.7836009433      -11.8594161751       68.3597521105  TIP3      2642            0.0000000000
     16502      2706  TIP3      H2             -5.4310525369      -10.5138181020       68.5633022347  TIP3      2642            0.0000000000
     16503      2707  TIP3      OH2            -6.9885242847       -8.5054524492       70.9903434809  TIP3      2643            0.0000000000
     16504      2707  TIP3      H1             -7.7457555371       -8.3034158954       71.5636156116  TIP3      2643            0.0000000000
     16505      2707  TIP3      H2             -7.4798427379       -8.9050679605       70.2508786624  TIP3      2643            0.0000000000
     16506      2708  TIP3      OH2            -4.9947142790      -14.2972903246       60.1303670086  TIP3      2644            0.0000000000
     16507      2708  TIP3      H1             -5.5804775390      -13.9862606077       59.4056538026  TIP3      2644            0.0000000000
     16508      2708  TIP3      H2             -5.1271511720      -13.5752381245       60.7761623915  TIP3      2644            0.0000000000
     16509      2709  TIP3      OH2            -6.6130565616      -17.0657327865       58.6088595858  TIP3      2645            0.0000000000
     16510      2709  TIP3      H1             -6.5713669546      -16.3935384650       57.9213946660  TIP3      2645            0.0000000000
     16511      2709  TIP3      H2             -6.8309814635      -17.8844876563       58.1141801059  TIP3      2645            0.0000000000
     16512      2710  TIP3      OH2            -7.4809641494      -15.6313641024       64.3403627693  TIP3      2646            0.0000000000
     16513      2710  TIP3      H1             -7.6254228714      -16.5836286729       64.2554637946  TIP3      2646            0.0000000000
     16514      2710  TIP3      H2             -7.7929245151      -15.4559398722       65.2510485491  TIP3      2646            0.0000000000
     16515      2711  TIP3      OH2           -22.5158391955      -13.5226297207       68.4165322995  TIP3      2647            0.0000000000
     16516      2711  TIP3      H1            -22.3843522419      -13.6303137284       67.4418435666  TIP3      2647            0.0000000000
     16517      2711  TIP3      H2            -21.6016596584      -13.6872914415       68.7276939994  TIP3      2647            0.0000000000
     16518      2712  TIP3      OH2            -7.3452067593      -19.5505767710       57.7763473819  TIP3      2648            0.0000000000
     16519      2712  TIP3      H1             -6.7700424032      -20.0199589414       58.4046503707  TIP3      2648            0.0000000000
     16520      2712  TIP3      H2             -8.2146904769      -19.9698392626       57.9068664179  TIP3      2648            0.0000000000
     16521      2713  TIP3      OH2            -7.8586507079      -18.0330646820       62.6962825288  TIP3      2649            0.0000000000
     16522      2713  TIP3      H1             -7.5369362872      -18.9416174662       62.8910919121  TIP3      2649            0.0000000000
     16523      2713  TIP3      H2             -7.0261494336      -17.6266245752       62.4176231780  TIP3      2649            0.0000000000
     16524      2714  TIP3      OH2            -7.2144725726      -17.4818890110       68.2043922904  TIP3      2650            0.0000000000
     16525      2714  TIP3      H1             -6.2408386073      -17.3283182465       68.1710172886  TIP3      2650            0.0000000000
     16526      2714  TIP3      H2             -7.3656562526      -17.3766896312       69.1640142272  TIP3      2650            0.0000000000
     16527      2715  TIP3      OH2            -7.1087768081      -16.7427763731       70.8781062189  TIP3      2651            0.0000000000
     16528      2715  TIP3      H1             -7.9850796052      -16.4994613891       71.2741617830  TIP3      2651            0.0000000000
     16529      2715  TIP3      H2             -6.6174898734      -15.9061761868       70.7195344113  TIP3      2651            0.0000000000
     16530      2716  TIP3      OH2            -7.1333278316      -20.7782527022       62.7874911257  TIP3      2652            0.0000000000
     16531      2716  TIP3      H1             -6.9169616468      -21.1930849154       63.6547153494  TIP3      2652            0.0000000000
     16532      2716  TIP3      H2             -7.7597130535      -21.4287093423       62.4092355828  TIP3      2652            0.0000000000
     16533      2717  TIP3      OH2           -21.7130173952      -19.8712279089       67.6533036740  TIP3      2653            0.0000000000
     16534      2717  TIP3      H1            -21.2582399452      -20.7313454591       67.6383912681  TIP3      2653            0.0000000000
     16535      2717  TIP3      H2            -21.0106945370      -19.2327310951       67.8016965751  TIP3      2653            0.0000000000
     16536      2718  TIP3      OH2           -23.4099423684      -16.6699709313       68.1754552690  TIP3      2654            0.0000000000
     16537      2718  TIP3      H1            -22.8081566735      -17.2012872782       67.6277041431  TIP3      2654            0.0000000000
     16538      2718  TIP3      H2            -22.7989065664      -16.0439760314       68.5617748323  TIP3      2654            0.0000000000
     16539      2719  TIP3      OH2            -5.2858574475      -20.7417633450       59.4704811750  TIP3      2655            0.0000000000
     16540      2719  TIP3      H1             -4.9743215412      -21.4044581685       58.8057297423  TIP3      2655            0.0000000000
     16541      2719  TIP3      H2             -4.6302024345      -20.0314855802       59.3916274714  TIP3      2655            0.0000000000
     16542      2720  TIP3      OH2           -22.6678268642      -20.9478067241       62.7350421639  TIP3      2656            0.0000000000
     16543      2720  TIP3      H1            -23.5322709886      -20.5565331447       62.9085753704  TIP3      2656            0.0000000000
     16544      2720  TIP3      H2            -22.3239200383      -20.3242840167       62.0550048858  TIP3      2656            0.0000000000
     16545      2721  TIP3      OH2            -8.2793358948       -5.7470018864       64.4390692329  TIP3      2657            0.0000000000
     16546      2721  TIP3      H1             -7.5950537448       -6.0336850682       63.8040515737  TIP3      2657            0.0000000000
     16547      2721  TIP3      H2             -7.7741397127       -5.2380145345       65.0926202546  TIP3      2657            0.0000000000
     16548      2722  TIP3      OH2            23.8140047677      -21.7463927798       70.9001813351  TIP3      2658            0.0000000000
     16549      2722  TIP3      H1             23.1770274453      -22.0279761325       71.5557246334  TIP3      2658            0.0000000000
     16550      2722  TIP3      H2             23.3078344539      -21.2248324248       70.2604148259  TIP3      2658            0.0000000000
     16551      2723  TIP3      OH2           -17.9216165358       -7.7731969924       71.2498393765  TIP3      2659            0.0000000000
     16552      2723  TIP3      H1            -18.2759558791       -6.9239083670       70.9454190957  TIP3      2659            0.0000000000
     16553      2723  TIP3      H2            -16.9921455481       -7.7146805095       70.9523570690  TIP3      2659            0.0000000000
     16554      2724  TIP3      OH2           -20.5478222692       -4.4909087457       71.0848260557  TIP3      2660            0.0000000000
     16555      2724  TIP3      H1            -21.3662371423       -4.0581171455       70.7533967225  TIP3      2660            0.0000000000
     16556      2724  TIP3      H2            -20.7876513137       -4.8125323405       71.9778902164  TIP3      2660            0.0000000000
     16557      2725  TIP3      OH2           -18.0404516273       -4.9328091895       70.3074844667  TIP3      2661            0.0000000000
     16558      2725  TIP3      H1            -18.9337076248       -4.7819632284       70.6947468784  TIP3      2661            0.0000000000
     16559      2725  TIP3      H2            -18.0979458237       -4.3801656539       69.5072818349  TIP3      2661            0.0000000000
     16560      2726  TIP3      OH2           -13.3386370393       -5.1028718193       69.4388752011  TIP3      2662            0.0000000000
     16561      2726  TIP3      H1            -13.7827829182       -4.5617058712       68.7626434397  TIP3      2662            0.0000000000
     16562      2726  TIP3      H2            -13.2181377392       -4.4683094642       70.1716071689  TIP3      2662            0.0000000000
     16563      2727  TIP3      OH2           -11.0900498960       -6.3455520400       70.4562972187  TIP3      2663            0.0000000000
     16564      2727  TIP3      H1            -11.8946159556       -5.9875691133       70.0511062481  TIP3      2663            0.0000000000
     16565      2727  TIP3      H2            -10.5092977080       -5.5693476707       70.3762549861  TIP3      2663            0.0000000000
     16566      2728  TIP3      OH2            -8.5222922070       -4.7240866425       70.6220508336  TIP3      2664            0.0000000000
     16567      2728  TIP3      H1             -8.4590939856       -3.7605288954       70.4348861069  TIP3      2664            0.0000000000
     16568      2728  TIP3      H2             -8.2246117198       -5.1233952368       69.7880302314  TIP3      2664            0.0000000000
     16569      2729  TIP3      OH2           -21.0516875389       -5.9771612945       68.0741802525  TIP3      2665            0.0000000000
     16570      2729  TIP3      H1            -21.1031574535       -6.3851665282       68.9604723339  TIP3      2665            0.0000000000
     16571      2729  TIP3      H2            -20.2055976288       -6.3404532870       67.7461600239  TIP3      2665            0.0000000000
     16572      2730  TIP3      OH2           -18.9837255790       -7.2586088201       66.7930738905  TIP3      2666            0.0000000000
     16573      2730  TIP3      H1            -19.1106205715       -8.1939049918       67.0432716558  TIP3      2666            0.0000000000
     16574      2730  TIP3      H2            -18.1245516328       -7.0784981134       67.2253751025  TIP3      2666            0.0000000000
     16575      2731  TIP3      OH2           -16.3737825830       -6.7692595664       67.6748188958  TIP3      2667            0.0000000000
     16576      2731  TIP3      H1            -16.2141299938       -7.7063777289       67.4625880396  TIP3      2667            0.0000000000
     16577      2731  TIP3      H2            -16.2883606597       -6.7815341695       68.6385836866  TIP3      2667            0.0000000000
     16578      2732  TIP3      OH2           -13.0032617305      -20.9956834325       66.8427558399  TIP3      2668            0.0000000000
     16579      2732  TIP3      H1            -13.5952678917      -21.7144797684       67.1532080464  TIP3      2668            0.0000000000
     16580      2732  TIP3      H2            -12.3571029123      -21.5312154707       66.3541389664  TIP3      2668            0.0000000000
     16581      2733  TIP3      OH2            -7.6139268447      -22.5156928404       67.0933718499  TIP3      2669            0.0000000000
     16582      2733  TIP3      H1             -7.0759884166      -22.3698540344       66.2851043730  TIP3      2669            0.0000000000
     16583      2733  TIP3      H2             -8.5033610134      -22.7383117715       66.7616813763  TIP3      2669            0.0000000000
     16584      2734  TIP3      OH2            -6.0786967149      -21.7716593589       65.0552703316  TIP3      2670            0.0000000000
     16585      2734  TIP3      H1             -5.4295029478      -22.4042339813       64.7335914084  TIP3      2670            0.0000000000
     16586      2734  TIP3      H2             -5.5433647573      -20.9613232655       65.2280111165  TIP3      2670            0.0000000000
     16587      2735  TIP3      OH2           -20.3990891276      -22.5702392741       64.6364008362  TIP3      2671            0.0000000000
     16588      2735  TIP3      H1            -21.2433050467      -22.5489627784       64.1511254787  TIP3      2671            0.0000000000
     16589      2735  TIP3      H2            -20.1009025289      -23.4778090718       64.5436547649  TIP3      2671            0.0000000000
     16590      2736  TIP3      OH2           -21.6839380325      -22.4049583296       60.9031826948  TIP3      2672            0.0000000000
     16591      2736  TIP3      H1            -21.3882243427      -21.8628780998       60.1626635297  TIP3      2672            0.0000000000
     16592      2736  TIP3      H2            -22.5390622676      -21.9944578372       61.0507437069  TIP3      2672            0.0000000000
     16593      2737  TIP3      OH2           -16.0654846405      -22.3792797919       64.3974588387  TIP3      2673            0.0000000000
     16594      2737  TIP3      H1            -15.1252326639      -22.1527419627       64.3779314061  TIP3      2673            0.0000000000
     16595      2737  TIP3      H2            -16.1082283862      -22.9333666776       65.1954880019  TIP3      2673            0.0000000000
     16596      2738  TIP3      OH2           -10.5033428488      -22.5165551488       66.0263764275  TIP3      2674            0.0000000000
     16597      2738  TIP3      H1            -10.3272706725      -22.4264334240       65.0882634960  TIP3      2674            0.0000000000
     16598      2738  TIP3      H2            -10.6261383203      -23.4653586204       66.1521759458  TIP3      2674            0.0000000000
     16599      2739  TIP3      OH2            -9.0027588539      -22.3904050623       61.8174812410  TIP3      2675            0.0000000000
     16600      2739  TIP3      H1             -9.7877304751      -21.8221213343       61.6804697301  TIP3      2675            0.0000000000
     16601      2739  TIP3      H2             -9.3146452240      -23.1567317534       62.3096577044  TIP3      2675            0.0000000000
     16602      2740  TIP3      OH2           -21.8219398086       -6.7270556120       61.4431996676  TIP3      2676            0.0000000000
     16603      2740  TIP3      H1            -22.5097603756       -6.7956122415       60.7674124400  TIP3      2676            0.0000000000
     16604      2740  TIP3      H2            -21.7992082227       -5.7634402003       61.5451721648  TIP3      2676            0.0000000000
     16605      2741  TIP3      OH2           -19.9443403247      -20.7990473624       58.8831984328  TIP3      2677            0.0000000000
     16606      2741  TIP3      H1            -19.3518811277      -21.3633183442       58.3630401027  TIP3      2677            0.0000000000
     16607      2741  TIP3      H2            -19.3047553298      -20.4710660566       59.5499986622  TIP3      2677            0.0000000000
     16608      2742  TIP3      OH2           -15.0414084621      -20.5454446546       61.3540104894  TIP3      2678            0.0000000000
     16609      2742  TIP3      H1            -14.6323349820      -21.0853665052       62.0561514556  TIP3      2678            0.0000000000
     16610      2742  TIP3      H2            -14.8911844099      -19.6606836809       61.7477071435  TIP3      2678            0.0000000000
     16611      2743  TIP3      OH2           -12.9671102333       -5.3837701888       59.7530211771  TIP3      2679            0.0000000000
     16612      2743  TIP3      H1            -12.0295929262       -5.2754299197       59.5116739581  TIP3      2679            0.0000000000
     16613      2743  TIP3      H2            -13.1942748379       -6.0034194740       59.0170224071  TIP3      2679            0.0000000000
     16614      2744  TIP3      OH2            -6.3196099108       -5.9881122776       62.4985660462  TIP3      2680            0.0000000000
     16615      2744  TIP3      H1             -6.4910002869       -6.7754657042       61.9300306392  TIP3      2680            0.0000000000
     16616      2744  TIP3      H2             -6.3802060913       -5.2556915175       61.8470651124  TIP3      2680            0.0000000000
     16617      2745  TIP3      OH2           -20.0541536623       -5.8091679844       58.3495437213  TIP3      2681            0.0000000000
     16618      2745  TIP3      H1            -20.3541958729       -5.5382676135       59.2322038780  TIP3      2681            0.0000000000
     16619      2745  TIP3      H2            -19.2967849502       -6.3852705060       58.5553216490  TIP3      2681            0.0000000000
     16620      2746  TIP3      OH2             7.4306601485      -13.3282757226       64.4914016915  TIP3      2682            0.0000000000
     16621      2746  TIP3      H1              7.3784131075      -12.3483189387       64.5315925801  TIP3      2682            0.0000000000
     16622      2746  TIP3      H2              6.6750209076      -13.5539477778       63.9243686828  TIP3      2682            0.0000000000
     16623      2747  TIP3      OH2             6.2887613072      -14.1180049613       68.0919557475  TIP3      2683            0.0000000000
     16624      2747  TIP3      H1              6.2343195684      -14.7753731592       68.7931548623  TIP3      2683            0.0000000000
     16625      2747  TIP3      H2              5.9164503895      -14.5994146489       67.3353164996  TIP3      2683            0.0000000000
     16626      2748  TIP3      OH2            -1.3917191834      -14.3544484171       69.6430414356  TIP3      2684            0.0000000000
     16627      2748  TIP3      H1             -1.2917829398      -15.0807844604       70.2817532387  TIP3      2684            0.0000000000
     16628      2748  TIP3      H2             -0.5920125619      -13.8416417822       69.7982811384  TIP3      2684            0.0000000000
     16629      2749  TIP3      OH2            10.0102965095      -11.1655882832       66.3338624426  TIP3      2685            0.0000000000
     16630      2749  TIP3      H1              9.4622211598      -11.8181953396       66.7755836041  TIP3      2685            0.0000000000
     16631      2749  TIP3      H2              9.9577827188      -10.4343593887       66.9804423932  TIP3      2685            0.0000000000
     16632      2750  TIP3      OH2            -0.4960138977       -9.9313697138       67.9929502950  TIP3      2686            0.0000000000
     16633      2750  TIP3      H1             -0.7599351459      -10.8445714867       67.7660137741  TIP3      2686            0.0000000000
     16634      2750  TIP3      H2              0.4551916970      -10.0910879628       68.1301863839  TIP3      2686            0.0000000000
     16635      2751  TIP3      OH2            -3.8523065973      -16.4182759341       63.5704685045  TIP3      2687            0.0000000000
     16636      2751  TIP3      H1             -4.2851011756      -15.5521152489       63.4831634537  TIP3      2687            0.0000000000
     16637      2751  TIP3      H2             -4.3896175602      -16.9744395116       62.9904596462  TIP3      2687            0.0000000000
     16638      2752  TIP3      OH2            -3.1002733206      -14.1691550225       65.7499717226  TIP3      2688            0.0000000000
     16639      2752  TIP3      H1             -2.8155958920      -15.0129879904       66.1513870910  TIP3      2688            0.0000000000
     16640      2752  TIP3      H2             -2.4525297697      -14.0532615363       65.0391264093  TIP3      2688            0.0000000000
     16641      2753  TIP3      OH2             7.0340933967       -5.9774736325       66.5806286731  TIP3      2689            0.0000000000
     16642      2753  TIP3      H1              7.6978224291       -6.6364711763       66.2638147690  TIP3      2689            0.0000000000
     16643      2753  TIP3      H2              6.8522791424       -6.3488989583       67.4541872782  TIP3      2689            0.0000000000
     16644      2754  TIP3      OH2             4.6281824181      -11.6893687899       68.5812087497  TIP3      2690            0.0000000000
     16645      2754  TIP3      H1              4.9519346005      -12.2755809123       67.8771291272  TIP3      2690            0.0000000000
     16646      2754  TIP3      H2              5.4751309897      -11.4896068895       69.0111992533  TIP3      2690            0.0000000000
     16647      2755  TIP3      OH2            13.2198429408      -20.0456654491       69.2629305178  TIP3      2691            0.0000000000
     16648      2755  TIP3      H1             13.4224245694      -19.4434928358       70.0034408931  TIP3      2691            0.0000000000
     16649      2755  TIP3      H2             13.7709582687      -19.6532792602       68.5697283061  TIP3      2691            0.0000000000
     16650      2756  TIP3      OH2             7.7557975675      -17.2450517741       68.8376756256  TIP3      2692            0.0000000000
     16651      2756  TIP3      H1              7.9556755184      -18.1997756150       68.8692264074  TIP3      2692            0.0000000000
     16652      2756  TIP3      H2              7.6980034749      -17.1131254848       67.8689209944  TIP3      2692            0.0000000000
     16653      2757  TIP3      OH2             0.8725456174      -19.0852760480       66.0232923288  TIP3      2693            0.0000000000
     16654      2757  TIP3      H1              1.0376361792      -18.2850038147       65.4891359406  TIP3      2693            0.0000000000
     16655      2757  TIP3      H2              0.5606688632      -19.7312748125       65.3570328374  TIP3      2693            0.0000000000
     16656      2758  TIP3      OH2             8.6894295438      -19.1420829778       64.3698574802  TIP3      2694            0.0000000000
     16657      2758  TIP3      H1              9.2925470587      -19.4216474302       65.0953429842  TIP3      2694            0.0000000000
     16658      2758  TIP3      H2              9.2360384194      -18.4785718332       63.9244567405  TIP3      2694            0.0000000000
     16659      2759  TIP3      OH2            -2.4678976977      -16.6915221803       66.7493205068  TIP3      2695            0.0000000000
     16660      2759  TIP3      H1             -1.8134019947      -17.2348109369       67.2254770570  TIP3      2695            0.0000000000
     16661      2759  TIP3      H2             -2.3519522235      -17.0131670672       65.8389049375  TIP3      2695            0.0000000000
     16662      2760  TIP3      OH2             2.6729468425      -15.1581740628       66.1025410815  TIP3      2696            0.0000000000
     16663      2760  TIP3      H1              3.3616341207      -15.7423771959       66.4672056198  TIP3      2696            0.0000000000
     16664      2760  TIP3      H2              2.1854770478      -15.7975826019       65.5458317182  TIP3      2696            0.0000000000
     16665      2761  TIP3      OH2            13.7942515296      -18.5664707130       71.5496839212  TIP3      2697            0.0000000000
     16666      2761  TIP3      H1             13.0873311949      -17.9189399928       71.3372009800  TIP3      2697            0.0000000000
     16667      2761  TIP3      H2             13.5847078154      -18.7819680742       72.4635754002  TIP3      2697            0.0000000000
     16668      2762  TIP3      OH2            -0.2373385677      -20.2280828859       70.0579698897  TIP3      2698            0.0000000000
     16669      2762  TIP3      H1             -0.4948045202      -19.6452110994       69.3097422363  TIP3      2698            0.0000000000
     16670      2762  TIP3      H2             -0.9282538425      -19.9981327824       70.7281633179  TIP3      2698            0.0000000000
     16671      2763  TIP3      OH2             7.0880754803      -10.7608457011       63.6122672248  TIP3      2699            0.0000000000
     16672      2763  TIP3      H1              6.8615515244      -11.0117012674       62.7030943947  TIP3      2699            0.0000000000
     16673      2763  TIP3      H2              6.7901042459       -9.8253723768       63.6632833766  TIP3      2699            0.0000000000
     16674      2764  TIP3      OH2             2.3438729284      -12.5332690121       70.3818351767  TIP3      2700            0.0000000000
     16675      2764  TIP3      H1              1.5749294365      -11.9184433454       70.4076366428  TIP3      2700            0.0000000000
     16676      2764  TIP3      H2              3.0123322167      -11.9425280538       69.9941507573  TIP3      2700            0.0000000000
     16677      2765  TIP3      OH2            10.4480391066      -19.6491797107       66.4453796180  TIP3      2701            0.0000000000
     16678      2765  TIP3      H1             10.2920287258      -20.4715169538       66.9407531849  TIP3      2701            0.0000000000
     16679      2765  TIP3      H2             11.1691548029      -19.2856106403       66.9828110553  TIP3      2701            0.0000000000
     16680      2766  TIP3      OH2            -0.6016888289      -18.3357340922       68.0681264539  TIP3      2702            0.0000000000
     16681      2766  TIP3      H1              0.0539351851      -17.6679398033       68.3554888309  TIP3      2702            0.0000000000
     16682      2766  TIP3      H2             -0.0888113388      -18.7961276866       67.3537579057  TIP3      2702            0.0000000000
     16683      2767  TIP3      OH2             0.7566540242      -10.4886797926       70.6732899246  TIP3      2703            0.0000000000
     16684      2767  TIP3      H1              0.7711013017       -9.5197485669       70.7997370765  TIP3      2703            0.0000000000
     16685      2767  TIP3      H2              0.0383162648      -10.6702695551       71.3285334596  TIP3      2703            0.0000000000
     16686      2768  TIP3      OH2            -3.1346902209      -11.0026094518       61.8859340546  TIP3      2704            0.0000000000
     16687      2768  TIP3      H1             -3.3743740149      -10.6084048113       61.0276077830  TIP3      2704            0.0000000000
     16688      2768  TIP3      H2             -3.0435426692      -10.2060481734       62.4454064528  TIP3      2704            0.0000000000
     16689      2769  TIP3      OH2            10.4357680086       -9.3325577387       68.5326625727  TIP3      2705            0.0000000000
     16690      2769  TIP3      H1              9.5021040347       -9.1424050313       68.7709984150  TIP3      2705            0.0000000000
     16691      2769  TIP3      H2             10.7543648797       -8.3993441993       68.4790798315  TIP3      2705            0.0000000000
     16692      2770  TIP3      OH2            10.7970310170      -21.0680703564       70.1028739276  TIP3      2706            0.0000000000
     16693      2770  TIP3      H1             10.0811275594      -20.4352888721       69.9323567157  TIP3      2706            0.0000000000
     16694      2770  TIP3      H2             11.5214692354      -20.6273698272       69.6198602036  TIP3      2706            0.0000000000
     16695      2771  TIP3      OH2             3.9375469061      -22.6499028292       67.6402044872  TIP3      2707            0.0000000000
     16696      2771  TIP3      H1              3.7961163125      -23.6088285279       67.5419987663  TIP3      2707            0.0000000000
     16697      2771  TIP3      H2              3.0359183211      -22.3478814146       67.8020458040  TIP3      2707            0.0000000000
     16698      2772  TIP3      OH2             8.7144073094       -7.5145755665       65.2291517419  TIP3      2708            0.0000000000
     16699      2772  TIP3      H1              9.1474502854       -8.2380195558       64.7323499556  TIP3      2708            0.0000000000
     16700      2772  TIP3      H2              9.2240377725       -6.7385251277       64.9044504099  TIP3      2708            0.0000000000
     16701      2773  TIP3      OH2            10.0080592899       -9.6136676665       63.7863254561  TIP3      2709            0.0000000000
     16702      2773  TIP3      H1              9.6357763552      -10.2679911388       63.1711307432  TIP3      2709            0.0000000000
     16703      2773  TIP3      H2              9.9523306193      -10.0884706147       64.6306927044  TIP3      2709            0.0000000000
     16704      2774  TIP3      OH2            11.5911492373      -10.9767322928       72.2369284222  TIP3      2710            0.0000000000
     16705      2774  TIP3      H1             11.6156179689      -11.5548616061       71.4603476823  TIP3      2710            0.0000000000
     16706      2774  TIP3      H2             11.7649787226      -10.0828177848       71.8696324389  TIP3      2710            0.0000000000
     16707      2775  TIP3      OH2             6.0573590203      -14.1285350022       62.0474743130  TIP3      2711            0.0000000000
     16708      2775  TIP3      H1              5.3726506528      -13.5336679797       61.6891040606  TIP3      2711            0.0000000000
     16709      2775  TIP3      H2              6.7741117542      -14.0062770330       61.3961278985  TIP3      2711            0.0000000000
     16710      2776  TIP3      OH2             6.1581490714      -15.5026220042       59.0390398629  TIP3      2712            0.0000000000
     16711      2776  TIP3      H1              6.8696777099      -15.4916896397       59.6990232815  TIP3      2712            0.0000000000
     16712      2776  TIP3      H2              6.4509199827      -16.2488385168       58.5049255118  TIP3      2712            0.0000000000
     16713      2777  TIP3      OH2            13.4720977222      -14.6227280605       70.3124373057  TIP3      2713            0.0000000000
     16714      2777  TIP3      H1             12.8149109240      -13.9074183891       70.2725158355  TIP3      2713            0.0000000000
     16715      2777  TIP3      H2             13.9818728809      -14.4576207459       69.5121147927  TIP3      2713            0.0000000000
     16716      2778  TIP3      OH2             9.5665895468      -13.9115316975       62.9762330528  TIP3      2714            0.0000000000
     16717      2778  TIP3      H1              8.7998025000      -13.6596080941       63.5469372602  TIP3      2714            0.0000000000
     16718      2778  TIP3      H2             10.0022283867      -14.5987075398       63.5031184503  TIP3      2714            0.0000000000
     16719      2779  TIP3      OH2             9.3628210244      -15.8469990449       72.0017148929  TIP3      2715            0.0000000000
     16720      2779  TIP3      H1              9.3805645445      -15.1024738075       72.6298531170  TIP3      2715            0.0000000000
     16721      2779  TIP3      H2              8.6791432778      -15.5575890408       71.3628277211  TIP3      2715            0.0000000000
     16722      2780  TIP3      OH2             1.1187426396      -13.2293286535       64.8746367793  TIP3      2716            0.0000000000
     16723      2780  TIP3      H1              0.8099564452      -13.6162702982       64.0184816072  TIP3      2716            0.0000000000
     16724      2780  TIP3      H2              1.7350208695      -13.9219849650       65.2060400957  TIP3      2716            0.0000000000
     16725      2781  TIP3      OH2             2.4497086446       -9.8615079509       67.5565477524  TIP3      2717            0.0000000000
     16726      2781  TIP3      H1              2.4524572062      -10.3493248103       66.7236488369  TIP3      2717            0.0000000000
     16727      2781  TIP3      H2              3.2272189693      -10.2206497405       68.0167513288  TIP3      2717            0.0000000000
     16728      2782  TIP3      OH2             1.4576911686      -14.5467696907       68.6048474744  TIP3      2718            0.0000000000
     16729      2782  TIP3      H1              1.9447042954      -14.4261232360       67.7601786103  TIP3      2718            0.0000000000
     16730      2782  TIP3      H2              1.8345240036      -13.8307237273       69.1571418553  TIP3      2718            0.0000000000
     16731      2783  TIP3      OH2             7.8644980496       -8.9192516451       69.2711194177  TIP3      2719            0.0000000000
     16732      2783  TIP3      H1              7.6676844175       -8.2374961953       69.9401571359  TIP3      2719            0.0000000000
     16733      2783  TIP3      H2              7.5761600805       -9.7569021645       69.6975022688  TIP3      2719            0.0000000000
     16734      2784  TIP3      OH2             8.4118486772      -14.6574263817       60.6139708947  TIP3      2720            0.0000000000
     16735      2784  TIP3      H1              8.9606755253      -14.4941200198       61.4172038076  TIP3      2720            0.0000000000
     16736      2784  TIP3      H2              8.8838518251      -14.1777332160       59.8903297987  TIP3      2720            0.0000000000
     16737      2785  TIP3      OH2             6.1038292873       -7.9689976207       64.0990872460  TIP3      2721            0.0000000000
     16738      2785  TIP3      H1              6.5347988134       -7.6551311583       64.9058309713  TIP3      2721            0.0000000000
     16739      2785  TIP3      H2              5.5571737448       -7.2162117107       63.8375612504  TIP3      2721            0.0000000000
     16740      2786  TIP3      OH2            12.1524437093      -22.9662535854       60.5169724417  TIP3      2722            0.0000000000
     16741      2786  TIP3      H1             11.2452917130      -22.8079815861       60.8216823629  TIP3      2722            0.0000000000
     16742      2786  TIP3      H2             12.3784810767      -22.1025777093       60.1286792481  TIP3      2722            0.0000000000
     16743      2787  TIP3      OH2             0.0655031657      -14.2440374815       62.5272883568  TIP3      2723            0.0000000000
     16744      2787  TIP3      H1             -0.2051999135      -13.4564557625       62.0084113477  TIP3      2723            0.0000000000
     16745      2787  TIP3      H2             -0.5630815042      -14.9121144378       62.2421313996  TIP3      2723            0.0000000000
     16746      2788  TIP3      OH2            13.2393368678       -8.6190029534       58.8942489597  TIP3      2724            0.0000000000
     16747      2788  TIP3      H1             13.4280957744       -7.6772127416       59.0540094838  TIP3      2724            0.0000000000
     16748      2788  TIP3      H2             14.1529796454       -8.9570049297       58.9127394837  TIP3      2724            0.0000000000
     16749      2789  TIP3      OH2            -3.7594260541      -11.8106887175       71.3410542087  TIP3      2725            0.0000000000
     16750      2789  TIP3      H1             -4.2345310734      -11.8483282547       70.4933032533  TIP3      2725            0.0000000000
     16751      2789  TIP3      H2             -3.7962708662      -12.7398389025       71.6173549541  TIP3      2725            0.0000000000
     16752      2790  TIP3      OH2            -4.0539906731       -9.0310449874       68.1845517697  TIP3      2726            0.0000000000
     16753      2790  TIP3      H1             -3.1010166504       -9.1710990604       68.1329626814  TIP3      2726            0.0000000000
     16754      2790  TIP3      H2             -4.1118954746       -8.2203411776       68.7089625501  TIP3      2726            0.0000000000
     16755      2791  TIP3      OH2             5.5998169897       -5.0694995433       62.4905139433  TIP3      2727            0.0000000000
     16756      2791  TIP3      H1              5.4666883701       -5.1272982013       61.5276009592  TIP3      2727            0.0000000000
     16757      2791  TIP3      H2              5.5853255326       -4.1120905543       62.6696453908  TIP3      2727            0.0000000000
     16758      2792  TIP3      OH2            -0.7855253058       -6.1729541245       64.3444568325  TIP3      2728            0.0000000000
     16759      2792  TIP3      H1             -0.6276616458       -6.5934899215       65.2209999530  TIP3      2728            0.0000000000
     16760      2792  TIP3      H2             -1.6299980178       -6.5954831254       64.1056459374  TIP3      2728            0.0000000000
     16761      2793  TIP3      OH2             8.6456296112       -5.8311344369       59.4723414059  TIP3      2729            0.0000000000
     16762      2793  TIP3      H1              9.1135408052       -6.5877444028       59.0514414572  TIP3      2729            0.0000000000
     16763      2793  TIP3      H2              8.6802725528       -6.0823074897       60.4197002604  TIP3      2729            0.0000000000
     16764      2794  TIP3      OH2             8.3377830082       -5.9042802600       62.2679933070  TIP3      2730            0.0000000000
     16765      2794  TIP3      H1              7.3741311813       -5.8251474933       62.4118371882  TIP3      2730            0.0000000000
     16766      2794  TIP3      H2              8.5445932195       -6.6580522826       62.8409983760  TIP3      2730            0.0000000000
     16767      2795  TIP3      OH2            -1.4609549938      -10.6182780044      -72.8779614514  TIP3      2731            0.0000000000
     16768      2795  TIP3      H1             -1.3414992978      -10.8009187459      -71.9277374542  TIP3      2731            0.0000000000
     16769      2795  TIP3      H2             -2.3723483110      -10.9162350919      -73.0714296440  TIP3      2731            0.0000000000
     16770      2796  TIP3      OH2             1.1369427407      -21.4279446730       68.0966609717  TIP3      2732            0.0000000000
     16771      2796  TIP3      H1              0.2920281392      -21.8670460944       67.8341116504  TIP3      2732            0.0000000000
     16772      2796  TIP3      H2              0.8578245086      -20.9559659459       68.8944717859  TIP3      2732            0.0000000000
     16773      2797  TIP3      OH2             5.7043927654      -22.0303829876       71.9336730833  TIP3      2733            0.0000000000
     16774      2797  TIP3      H1              6.2275029390      -22.7111188440       72.3713741056  TIP3      2733            0.0000000000
     16775      2797  TIP3      H2              4.8470630910      -22.4525679780       71.8663017968  TIP3      2733            0.0000000000
     16776      2798  TIP3      OH2             9.8487360828      -13.6272485873       58.5250285383  TIP3      2734            0.0000000000
     16777      2798  TIP3      H1              9.7782947156      -13.8186466110       57.5622280939  TIP3      2734            0.0000000000
     16778      2798  TIP3      H2             10.7087974362      -13.1833833664       58.5112290220  TIP3      2734            0.0000000000
     16779      2799  TIP3      OH2             5.4544510681      -19.7341367913       58.9816652204  TIP3      2735            0.0000000000
     16780      2799  TIP3      H1              5.1041424524      -19.8143948592       59.8843237667  TIP3      2735            0.0000000000
     16781      2799  TIP3      H2              5.1089353340      -20.5786942266       58.6292476984  TIP3      2735            0.0000000000
     16782      2800  TIP3      OH2             1.2528832945      -17.0157425052       69.5973137548  TIP3      2736            0.0000000000
     16783      2800  TIP3      H1              0.4554784294      -17.0253036825       70.1631814624  TIP3      2736            0.0000000000
     16784      2800  TIP3      H2              1.1901363145      -16.1252793526       69.1763593655  TIP3      2736            0.0000000000
     16785      2801  TIP3      OH2             1.2196136345      -16.9038181672       64.3847896744  TIP3      2737            0.0000000000
     16786      2801  TIP3      H1              0.2752593494      -17.1523124642       64.2909184411  TIP3      2737            0.0000000000
     16787      2801  TIP3      H2              1.5742733665      -17.1992096678       63.5219579536  TIP3      2737            0.0000000000
     16788      2802  TIP3      OH2             6.7500919621      -16.3780576300       63.1726134793  TIP3      2738            0.0000000000
     16789      2802  TIP3      H1              6.3587923625      -15.5540233686       62.7973000120  TIP3      2738            0.0000000000
     16790      2802  TIP3      H2              7.4184614630      -16.5743223616       62.4958677755  TIP3      2738            0.0000000000
     16791      2803  TIP3      OH2             7.7896206798      -16.8761804916       66.0347046187  TIP3      2739            0.0000000000
     16792      2803  TIP3      H1              7.4640120537      -16.3198043099       65.3068288116  TIP3      2739            0.0000000000
     16793      2803  TIP3      H2              7.8455459470      -17.7333204395       65.5783588932  TIP3      2739            0.0000000000
     16794      2804  TIP3      OH2            -1.0440020972      -16.7571970294       71.2154701232  TIP3      2740            0.0000000000
     16795      2804  TIP3      H1             -1.0991193061      -16.3834952720       72.1156074254  TIP3      2740            0.0000000000
     16796      2804  TIP3      H2             -1.5468087435      -17.5790099085       71.3807816043  TIP3      2740            0.0000000000
     16797      2805  TIP3      OH2             2.2127563635      -19.3941400468       58.0736053222  TIP3      2741            0.0000000000
     16798      2805  TIP3      H1              1.7291039942      -19.8132440852       58.8233791057  TIP3      2741            0.0000000000
     16799      2805  TIP3      H2              1.5269246025      -18.9423271070       57.5607663951  TIP3      2741            0.0000000000
     16800      2806  TIP3      OH2            -4.4373471064      -19.6576423686       65.2440057006  TIP3      2742            0.0000000000
     16801      2806  TIP3      H1             -3.7213376909      -19.6742824948       65.9069439929  TIP3      2742            0.0000000000
     16802      2806  TIP3      H2             -4.0334617716      -20.0331280859       64.4371250751  TIP3      2742            0.0000000000
     16803      2807  TIP3      OH2            -3.2224851602      -18.9280907031       60.5694419548  TIP3      2743            0.0000000000
     16804      2807  TIP3      H1             -2.6838953112      -18.3503429564       59.9965511700  TIP3      2743            0.0000000000
     16805      2807  TIP3      H2             -3.9002125077      -18.2898911353       60.8654530419  TIP3      2743            0.0000000000
     16806      2808  TIP3      OH2             7.0495773559      -15.3077846213       70.6440324277  TIP3      2744            0.0000000000
     16807      2808  TIP3      H1              7.3012879493      -16.0027186884       69.9946802491  TIP3      2744            0.0000000000
     16808      2808  TIP3      H2              6.4903191375      -15.8486380768       71.2333524338  TIP3      2744            0.0000000000
     16809      2809  TIP3      OH2             3.7565399449      -19.2710552494       65.4248742980  TIP3      2745            0.0000000000
     16810      2809  TIP3      H1              2.8271560370      -19.4122877795       65.6981372247  TIP3      2745            0.0000000000
     16811      2809  TIP3      H2              4.2398117160      -19.5634290008       66.2160102580  TIP3      2745            0.0000000000
     16812      2810  TIP3      OH2            -1.4253315803      -17.7696708563       64.2650685856  TIP3      2746            0.0000000000
     16813      2810  TIP3      H1             -2.3079062550      -17.6513569775       63.8538265101  TIP3      2746            0.0000000000
     16814      2810  TIP3      H2             -1.1367499908      -18.6271095245       63.8875753863  TIP3      2746            0.0000000000
     16815      2811  TIP3      OH2             2.2084928923      -17.7303288175       61.9133327489  TIP3      2747            0.0000000000
     16816      2811  TIP3      H1              3.1699588718      -17.6452360449       62.0458807399  TIP3      2747            0.0000000000
     16817      2811  TIP3      H2              1.9688689455      -17.0531670015       61.2535820685  TIP3      2747            0.0000000000
     16818      2812  TIP3      OH2             8.1745529904      -20.1855509092       68.5851277228  TIP3      2748            0.0000000000
     16819      2812  TIP3      H1              7.5244143731      -20.0966678668       69.3097347197  TIP3      2748            0.0000000000
     16820      2812  TIP3      H2              7.6450666146      -20.4642644895       67.8315564692  TIP3      2748            0.0000000000
     16821      2813  TIP3      OH2             0.9331318808      -16.5643149398       59.4859705836  TIP3      2749            0.0000000000
     16822      2813  TIP3      H1              0.4019403283      -16.9586043119       58.7738269451  TIP3      2749            0.0000000000
     16823      2813  TIP3      H2              1.7479069739      -16.3450748709       59.0064716621  TIP3      2749            0.0000000000
     16824      2814  TIP3      OH2             5.0537482430      -16.5897248270       67.3098995864  TIP3      2750            0.0000000000
     16825      2814  TIP3      H1              5.6413194474      -17.1192045777       66.7615913122  TIP3      2750            0.0000000000
     16826      2814  TIP3      H2              4.8764655024      -17.1924225804       68.0439107547  TIP3      2750            0.0000000000
     16827      2815  TIP3      OH2            -0.0070757664      -20.4492181052       63.7119324892  TIP3      2751            0.0000000000
     16828      2815  TIP3      H1             -0.3112654594      -21.3690255750       63.7851440286  TIP3      2751            0.0000000000
     16829      2815  TIP3      H2              0.8132622961      -20.5670254323       63.2077261395  TIP3      2751            0.0000000000
     16830      2816  TIP3      OH2             3.7205498095      -18.2794229646       69.6813891957  TIP3      2752            0.0000000000
     16831      2816  TIP3      H1              2.9113926782      -17.7280033757       69.7332384163  TIP3      2752            0.0000000000
     16832      2816  TIP3      H2              4.2738072519      -17.9107053396       70.3967640294  TIP3      2752            0.0000000000
     16833      2817  TIP3      OH2             4.2646360599      -12.0580637721       61.4263739100  TIP3      2753            0.0000000000
     16834      2817  TIP3      H1              3.4586082042      -12.5036877745       61.0774084133  TIP3      2753            0.0000000000
     16835      2817  TIP3      H2              4.0100661058      -11.8848235524       62.3562620178  TIP3      2753            0.0000000000
     16836      2818  TIP3      OH2            11.4933770065      -12.8251472539       70.2376491450  TIP3      2754            0.0000000000
     16837      2818  TIP3      H1             12.0265079932      -12.3155097735       69.5956013359  TIP3      2754            0.0000000000
     16838      2818  TIP3      H2             10.6401640332      -12.8562626057       69.7448989748  TIP3      2754            0.0000000000
     16839      2819  TIP3      OH2             8.0889500016      -19.2268272439       59.5828404809  TIP3      2755            0.0000000000
     16840      2819  TIP3      H1              7.1339291106      -19.0759342586       59.4449706805  TIP3      2755            0.0000000000
     16841      2819  TIP3      H2              8.4382244128      -18.3885533139       59.9466928921  TIP3      2755            0.0000000000
     16842      2820  TIP3      OH2             8.8239967126      -17.2788686604       61.1790343448  TIP3      2756            0.0000000000
     16843      2820  TIP3      H1              9.6917791135      -17.4278674314       61.6231623366  TIP3      2756            0.0000000000
     16844      2820  TIP3      H2              8.9611692602      -16.4591828016       60.6808608194  TIP3      2756            0.0000000000
     16845      2821  TIP3      OH2            -0.5901126185      -12.6073197127       67.2196823525  TIP3      2757            0.0000000000
     16846      2821  TIP3      H1              0.0247226090      -12.7234872179       66.4702913886  TIP3      2757            0.0000000000
     16847      2821  TIP3      H2             -0.5469279312      -13.4594958680       67.6811234454  TIP3      2757            0.0000000000
     16848      2822  TIP3      OH2             6.3454414586      -10.5847422016       60.4501115072  TIP3      2758            0.0000000000
     16849      2822  TIP3      H1              6.0032219230       -9.7296964502       60.7916433322  TIP3      2758            0.0000000000
     16850      2822  TIP3      H2              5.6168890100      -11.1997603963       60.6806599395  TIP3      2758            0.0000000000
     16851      2823  TIP3      OH2            13.7133894508      -17.1627507241       60.9958535709  TIP3      2759            0.0000000000
     16852      2823  TIP3      H1             13.1754117138      -17.4457472164       60.2282168721  TIP3      2759            0.0000000000
     16853      2823  TIP3      H2             13.7960991498      -16.2089181801       60.7671955223  TIP3      2759            0.0000000000
     16854      2824  TIP3      OH2            11.9599172439       -8.3405318738       61.3554939292  TIP3      2760            0.0000000000
     16855      2824  TIP3      H1             11.6485677705       -9.1767426286       61.7214950039  TIP3      2760            0.0000000000
     16856      2824  TIP3      H2             12.3564553761       -8.5886329171       60.5049357041  TIP3      2760            0.0000000000
     16857      2825  TIP3      OH2             9.2657975587      -13.4727980455       68.5048597147  TIP3      2761            0.0000000000
     16858      2825  TIP3      H1              8.3243171182      -13.6886955267       68.3700747272  TIP3      2761            0.0000000000
     16859      2825  TIP3      H2              9.6678025449      -14.2519264516       68.0740048232  TIP3      2761            0.0000000000
     16860      2826  TIP3      OH2             1.7645933272       -9.1743286851       64.6076299574  TIP3      2762            0.0000000000
     16861      2826  TIP3      H1              2.2539477196       -8.3597362207       64.4017522116  TIP3      2762            0.0000000000
     16862      2826  TIP3      H2              0.8870210994       -8.9563784369       64.2638082213  TIP3      2762            0.0000000000
     16863      2827  TIP3      OH2            -2.4620687979      -14.3554301691       59.1752555643  TIP3      2763            0.0000000000
     16864      2827  TIP3      H1             -1.8995178096      -13.6826162015       59.5977926709  TIP3      2763            0.0000000000
     16865      2827  TIP3      H2             -3.3673951785      -14.0588641614       59.3991145653  TIP3      2763            0.0000000000
     16866      2828  TIP3      OH2             3.1468707726      -11.5093329045       64.0666592341  TIP3      2764            0.0000000000
     16867      2828  TIP3      H1              2.8148286861      -10.5988463099       64.1949543533  TIP3      2764            0.0000000000
     16868      2828  TIP3      H2              2.4718450159      -12.0326411456       64.5415490242  TIP3      2764            0.0000000000
     16869      2829  TIP3      OH2             3.6356365674       -7.3223632451       70.4350591664  TIP3      2765            0.0000000000
     16870      2829  TIP3      H1              4.1231948909       -6.5198878856       70.2147727589  TIP3      2765            0.0000000000
     16871      2829  TIP3      H2              4.2344666511       -7.6390969173       71.1330703339  TIP3      2765            0.0000000000
     16872      2830  TIP3      OH2             1.8439103491       -6.5269202586       63.6174838631  TIP3      2766            0.0000000000
     16873      2830  TIP3      H1              0.8835728306       -6.3854504165       63.7816425114  TIP3      2766            0.0000000000
     16874      2830  TIP3      H2              2.2210604842       -5.6946715914       63.9533298810  TIP3      2766            0.0000000000
     16875      2831  TIP3      OH2             7.0892632152      -11.3510540890       70.1489430483  TIP3      2767            0.0000000000
     16876      2831  TIP3      H1              6.8487456510      -11.5167847092       71.0651656525  TIP3      2767            0.0000000000
     16877      2831  TIP3      H2              7.7748466379      -12.0102285397       69.9627394804  TIP3      2767            0.0000000000
     16878      2832  TIP3      OH2             9.5159335966      -10.2305399191       59.2387397446  TIP3      2768            0.0000000000
     16879      2832  TIP3      H1              9.7874245606      -10.7359837663       60.0348257620  TIP3      2768            0.0000000000
     16880      2832  TIP3      H2              8.5646381550      -10.4345401771       59.2823813099  TIP3      2768            0.0000000000
     16881      2833  TIP3      OH2            13.9457305687       -5.9145496987       59.4987044873  TIP3      2769            0.0000000000
     16882      2833  TIP3      H1             14.6157128261       -5.2410708018       59.2687306018  TIP3      2769            0.0000000000
     16883      2833  TIP3      H2             13.2256965700       -5.3086738970       59.7813780624  TIP3      2769            0.0000000000
     16884      2834  TIP3      OH2            -2.0728138653      -19.4903845677       71.7869010649  TIP3      2770            0.0000000000
     16885      2834  TIP3      H1             -2.9852187275      -19.1884227314       71.8829514973  TIP3      2770            0.0000000000
     16886      2834  TIP3      H2             -2.0326755696      -20.2381170710       72.4236892547  TIP3      2770            0.0000000000
     16887      2835  TIP3      OH2            10.2370322857      -11.6170643707       61.4603582532  TIP3      2771            0.0000000000
     16888      2835  TIP3      H1              9.9934856585      -12.4149698608       61.9763132970  TIP3      2771            0.0000000000
     16889      2835  TIP3      H2             11.1957945513      -11.5988107692       61.6105840615  TIP3      2771            0.0000000000
     16890      2836  TIP3      OH2            -2.3538201632       -7.6861418084       70.4154355535  TIP3      2772            0.0000000000
     16891      2836  TIP3      H1             -2.0254682448       -8.6006149501       70.4057282635  TIP3      2772            0.0000000000
     16892      2836  TIP3      H2             -2.0562066977       -7.3754583085       71.2887450416  TIP3      2772            0.0000000000
     16893      2837  TIP3      OH2             3.6362274079       -9.1693015769       57.7527235886  TIP3      2773            0.0000000000
     16894      2837  TIP3      H1              3.7044831959       -9.9131492683       57.1286000279  TIP3      2773            0.0000000000
     16895      2837  TIP3      H2              3.1358837796       -9.6052266163       58.4768075548  TIP3      2773            0.0000000000
     16896      2838  TIP3      OH2             2.3525482014       -9.6637353759       60.2034670741  TIP3      2774            0.0000000000
     16897      2838  TIP3      H1              2.6919057251      -10.1803405457       60.9450769101  TIP3      2774            0.0000000000
     16898      2838  TIP3      H2              2.4821529266       -8.7411234830       60.5241226312  TIP3      2774            0.0000000000
     16899      2839  TIP3      OH2            -1.0561844730      -12.4172092286       60.6809518932  TIP3      2775            0.0000000000
     16900      2839  TIP3      H1             -1.7915143488      -12.0100083660       61.1843274909  TIP3      2775            0.0000000000
     16901      2839  TIP3      H2             -0.5704446078      -11.6405279537       60.3503205274  TIP3      2775            0.0000000000
     16902      2840  TIP3      OH2             6.7988834854      -19.7496473646       70.9562283195  TIP3      2776            0.0000000000
     16903      2840  TIP3      H1              7.4427556949      -19.7034004710       71.6655184895  TIP3      2776            0.0000000000
     16904      2840  TIP3      H2              6.3704984531      -20.5977161944       71.1937224592  TIP3      2776            0.0000000000
     16905      2841  TIP3      OH2             7.6454647606      -20.2563163451       62.0865685136  TIP3      2777            0.0000000000
     16906      2841  TIP3      H1              7.7090357242      -19.7194536551       61.2684472804  TIP3      2777            0.0000000000
     16907      2841  TIP3      H2              8.0417649663      -19.6549794454       62.7435818704  TIP3      2777            0.0000000000
     16908      2842  TIP3      OH2             5.1845109458       -8.0083601654       60.8652870675  TIP3      2778            0.0000000000
     16909      2842  TIP3      H1              4.3637582430       -7.4813380173       60.9541521149  TIP3      2778            0.0000000000
     16910      2842  TIP3      H2              5.7305521960       -7.4341261534       60.3108627534  TIP3      2778            0.0000000000
     16911      2843  TIP3      OH2             4.7424309549      -18.4389042803       62.9018549964  TIP3      2779            0.0000000000
     16912      2843  TIP3      H1              5.4940336411      -17.8207804575       62.9653616468  TIP3      2779            0.0000000000
     16913      2843  TIP3      H2              4.4475662834      -18.5622431442       63.8292132121  TIP3      2779            0.0000000000
     16914      2844  TIP3      OH2             5.5222170116      -17.3028447716       71.9462958052  TIP3      2780            0.0000000000
     16915      2844  TIP3      H1              5.2047853172      -16.9838195593       72.8103228433  TIP3      2780            0.0000000000
     16916      2844  TIP3      H2              5.8338580532      -18.1979016752       72.1502616799  TIP3      2780            0.0000000000
     16917      2845  TIP3      OH2             5.5563717156      -21.3300569381       63.8341427396  TIP3      2781            0.0000000000
     16918      2845  TIP3      H1              5.2182801699      -20.6575423672       64.4461720744  TIP3      2781            0.0000000000
     16919      2845  TIP3      H2              6.2244190303      -20.8210985517       63.3302327615  TIP3      2781            0.0000000000
     16920      2846  TIP3      OH2             2.6256382910       -6.9896367447       60.9188390610  TIP3      2782            0.0000000000
     16921      2846  TIP3      H1              2.6808285651       -6.1834349181       60.3503299823  TIP3      2782            0.0000000000
     16922      2846  TIP3      H2              2.3114986334       -6.6115708643       61.7716257630  TIP3      2782            0.0000000000
     16923      2847  TIP3      OH2             1.1802355322      -20.2085801173       60.4395113723  TIP3      2783            0.0000000000
     16924      2847  TIP3      H1              1.1682620196      -19.3491845882       60.8938180960  TIP3      2783            0.0000000000
     16925      2847  TIP3      H2              2.0699178077      -20.5137630039       60.7218962179  TIP3      2783            0.0000000000
     16926      2848  TIP3      OH2            10.0877614815      -15.6922041071       66.9215509450  TIP3      2784            0.0000000000
     16927      2848  TIP3      H1              9.2561643593      -16.1387108426       66.6669342350  TIP3      2784            0.0000000000
     16928      2848  TIP3      H2             10.5594254265      -16.4158526443       67.3974091329  TIP3      2784            0.0000000000
     16929      2849  TIP3      OH2            -0.5463480367       -9.8081548061       59.5032536594  TIP3      2785            0.0000000000
     16930      2849  TIP3      H1              0.1483723361       -9.2282192236       59.8532964658  TIP3      2785            0.0000000000
     16931      2849  TIP3      H2             -0.0217182480      -10.2968528093       58.8376263011  TIP3      2785            0.0000000000
     16932      2850  TIP3      OH2            -2.2068600382      -17.1434760454       58.6589974620  TIP3      2786            0.0000000000
     16933      2850  TIP3      H1             -2.1460245559      -16.1948809467       58.9020594437  TIP3      2786            0.0000000000
     16934      2850  TIP3      H2             -3.1063791513      -17.2513540884       58.3407027049  TIP3      2786            0.0000000000
     16935      2851  TIP3      OH2            11.1296545091       -6.5627970048       68.5359697105  TIP3      2787            0.0000000000
     16936      2851  TIP3      H1             11.0235379955       -5.7787085269       67.9612807215  TIP3      2787            0.0000000000
     16937      2851  TIP3      H2             12.0520839962       -6.4139058382       68.8221080474  TIP3      2787            0.0000000000
     16938      2852  TIP3      OH2            -1.3618182662      -22.2646095384       67.3542579259  TIP3      2788            0.0000000000
     16939      2852  TIP3      H1             -1.6018828212      -22.3458957173       66.4043041904  TIP3      2788            0.0000000000
     16940      2852  TIP3      H2             -1.7104846684      -23.1089604330       67.7101190939  TIP3      2788            0.0000000000
     16941      2853  TIP3      OH2            -2.4297544934       -8.4211649085       63.5897881085  TIP3      2789            0.0000000000
     16942      2853  TIP3      H1             -3.2937550129       -8.0010623875       63.5039644943  TIP3      2789            0.0000000000
     16943      2853  TIP3      H2             -1.9770152555       -7.9998626967       62.8460608057  TIP3      2789            0.0000000000
     16944      2854  TIP3      OH2             5.6456671608       -7.3311305727       57.8676601080  TIP3      2790            0.0000000000
     16945      2854  TIP3      H1              4.9276505021       -7.9845791012       58.0353440039  TIP3      2790            0.0000000000
     16946      2854  TIP3      H2              6.3417025700       -7.9462770071       57.5920368751  TIP3      2790            0.0000000000
     16947      2855  TIP3      OH2            10.1722176561       -7.6223952969       58.0215182928  TIP3      2791            0.0000000000
     16948      2855  TIP3      H1             10.4553621430       -8.3842287677       58.5549016814  TIP3      2791            0.0000000000
     16949      2855  TIP3      H2             10.9520724110       -7.4198837581       57.4923132292  TIP3      2791            0.0000000000
     16950      2856  TIP3      OH2             1.0411765261      -11.6574929139       57.8256322256  TIP3      2792            0.0000000000
     16951      2856  TIP3      H1              1.1816401375      -12.4041571328       58.4259404174  TIP3      2792            0.0000000000
     16952      2856  TIP3      H2              1.8090572458      -11.7721623850       57.2301104028  TIP3      2792            0.0000000000
     16953      2857  TIP3      OH2             6.4950782716      -10.5394303058       57.6308931499  TIP3      2793            0.0000000000
     16954      2857  TIP3      H1              6.2172975163      -10.4842478025       58.5597920797  TIP3      2793            0.0000000000
     16955      2857  TIP3      H2              6.3152142982      -11.4912157136       57.4581073211  TIP3      2793            0.0000000000
     16956      2858  TIP3      OH2             2.2499206607      -13.6298795675       60.3173023108  TIP3      2794            0.0000000000
     16957      2858  TIP3      H1              1.7184777710      -14.1848698276       60.9043315787  TIP3      2794            0.0000000000
     16958      2858  TIP3      H2              2.5677696918      -14.2839725561       59.6539089754  TIP3      2794            0.0000000000
     16959      2859  TIP3      OH2             3.3336933439      -15.4010423394       58.4725655045  TIP3      2795            0.0000000000
     16960      2859  TIP3      H1              3.1954046196      -15.4699712933       57.5052698785  TIP3      2795            0.0000000000
     16961      2859  TIP3      H2              4.3093362543      -15.3851370835       58.5578479717  TIP3      2795            0.0000000000
     16962      2860  TIP3      OH2            12.6158759938      -13.1063143668       57.8813677724  TIP3      2796            0.0000000000
     16963      2860  TIP3      H1             12.4768310233      -13.4627452345       56.9865492443  TIP3      2796            0.0000000000
     16964      2860  TIP3      H2             12.7329818926      -12.1414531824       57.7095910626  TIP3      2796            0.0000000000
     16965      2861  TIP3      OH2             2.2991132673      -20.2768193551       70.6974178229  TIP3      2797            0.0000000000
     16966      2861  TIP3      H1              2.7977428461      -19.5142909914       70.3324948531  TIP3      2797            0.0000000000
     16967      2861  TIP3      H2              1.3619507261      -20.0337831868       70.5954311235  TIP3      2797            0.0000000000
     16968      2862  TIP3      OH2             3.9673176409      -14.5580275964       71.1959986673  TIP3      2798            0.0000000000
     16969      2862  TIP3      H1              4.7399833763      -14.6763491345       70.6400522402  TIP3      2798            0.0000000000
     16970      2862  TIP3      H2              3.5651913021      -13.7002151235       70.9692804538  TIP3      2798            0.0000000000
     16971      2863  TIP3      OH2             2.5688440344      -22.4126352448       71.9793217730  TIP3      2799            0.0000000000
     16972      2863  TIP3      H1              2.7239437300      -21.5320266937       71.5615220850  TIP3      2799            0.0000000000
     16973      2863  TIP3      H2              2.2421312700      -22.8933328458       71.2165580361  TIP3      2799            0.0000000000
     16974      2864  TIP3      OH2             3.1355293666       -4.7012530211       59.5896522744  TIP3      2800            0.0000000000
     16975      2864  TIP3      H1              4.1052790047       -4.6587340617       59.6449036188  TIP3      2800            0.0000000000
     16976      2864  TIP3      H2              3.0120968152       -4.1440951274       58.8100189253  TIP3      2800            0.0000000000
     16977      2865  TIP3      OH2            -3.3153103300      -10.1712657774       59.0542169094  TIP3      2801            0.0000000000
     16978      2865  TIP3      H1             -2.3506027808      -10.0648502005       59.2116943590  TIP3      2801            0.0000000000
     16979      2865  TIP3      H2             -3.2863734929      -10.7863285785       58.2817122261  TIP3      2801            0.0000000000
     16980      2866  TIP3      OH2            -4.5004716913       -4.7754430662       63.9822589138  TIP3      2802            0.0000000000
     16981      2866  TIP3      H1             -5.2311633785       -5.2690797236       63.5438765322  TIP3      2802            0.0000000000
     16982      2866  TIP3      H2             -4.2280287774       -5.4130444883       64.6695904077  TIP3      2802            0.0000000000
     16983      2867  TIP3      OH2            -3.6932178116       -6.6256179856       65.8720836505  TIP3      2803            0.0000000000
     16984      2867  TIP3      H1             -4.0597232944       -7.4910439808       66.1078612536  TIP3      2803            0.0000000000
     16985      2867  TIP3      H2             -3.4397940067       -6.2836594369       66.7476567138  TIP3      2803            0.0000000000
     16986      2868  TIP3      OH2            13.8724492385       -5.8012419318       68.7418671824  TIP3      2804            0.0000000000
     16987      2868  TIP3      H1             13.8508559395       -5.7163429723       69.7092549227  TIP3      2804            0.0000000000
     16988      2868  TIP3      H2             14.6034123926       -5.2192562304       68.5300344396  TIP3      2804            0.0000000000
     16989      2869  TIP3      OH2            14.2040055697       -7.0554457016       71.6364703712  TIP3      2805            0.0000000000
     16990      2869  TIP3      H1             13.2715049379       -6.9940809345       71.3442043630  TIP3      2805            0.0000000000
     16991      2869  TIP3      H2             14.0688660758       -6.6263604105       72.4931285664  TIP3      2805            0.0000000000
     16992      2870  TIP3      OH2            13.1657852540      -12.1409435530       61.8404086860  TIP3      2806            0.0000000000
     16993      2870  TIP3      H1             14.0582803134      -11.7772432061       61.9840940588  TIP3      2806            0.0000000000
     16994      2870  TIP3      H2             13.1524106557      -12.8801902727       62.4779641795  TIP3      2806            0.0000000000
     16995      2871  TIP3      OH2            13.4645578255      -13.9700569861       63.8197603673  TIP3      2807            0.0000000000
     16996      2871  TIP3      H1             12.7498160672      -14.6220382358       64.0493934907  TIP3      2807            0.0000000000
     16997      2871  TIP3      H2             14.1934377109      -14.2042794917       64.4117341258  TIP3      2807            0.0000000000
     16998      2872  TIP3      OH2            13.2519395323      -11.4823665779       68.5643395912  TIP3      2808            0.0000000000
     16999      2872  TIP3      H1             14.1764420275      -11.7831452367       68.5412921302  TIP3      2808            0.0000000000
     17000      2872  TIP3      H2             13.4043779319      -10.5094083312       68.5667240910  TIP3      2808            0.0000000000
     17001      2873  TIP3      OH2            11.8572837111       -8.6081486096       70.9537645663  TIP3      2809            0.0000000000
     17002      2873  TIP3      H1             11.1771404666       -8.2242093407       71.5364711329  TIP3      2809            0.0000000000
     17003      2873  TIP3      H2             11.3064767853       -8.8919751368       70.2140228168  TIP3      2809            0.0000000000
     17004      2874  TIP3      OH2            13.8466005154      -14.2865478307       60.1227261913  TIP3      2810            0.0000000000
     17005      2874  TIP3      H1             13.2673824393      -13.9801731027       59.3959872934  TIP3      2810            0.0000000000
     17006      2874  TIP3      H2             13.7220523834      -13.5552157467       60.7511905927  TIP3      2810            0.0000000000
     17007      2875  TIP3      OH2            12.2401200259      -17.0622882239       58.6274861535  TIP3      2811            0.0000000000
     17008      2875  TIP3      H1             12.3089612909      -16.4029849842       57.9271869543  TIP3      2811            0.0000000000
     17009      2875  TIP3      H2             12.0261764014      -17.8816189958       58.1318144692  TIP3      2811            0.0000000000
     17010      2876  TIP3      OH2            11.4020103261      -15.6240727802       64.3609432132  TIP3      2812            0.0000000000
     17011      2876  TIP3      H1             11.2260584531      -16.5710158282       64.2308072858  TIP3      2812            0.0000000000
     17012      2876  TIP3      H2             11.0251216694      -15.4825742466       65.2528354343  TIP3      2812            0.0000000000
     17013      2877  TIP3      OH2            -3.6239129052      -13.5324010188       68.3830451684  TIP3      2813            0.0000000000
     17014      2877  TIP3      H1             -3.4717293523      -13.6258528668       67.4186573973  TIP3      2813            0.0000000000
     17015      2877  TIP3      H2             -2.7313789049      -13.7536528921       68.7249567475  TIP3      2813            0.0000000000
     17016      2878  TIP3      OH2            11.5053220695      -19.5464432385       57.7801877471  TIP3      2814            0.0000000000
     17017      2878  TIP3      H1             12.0800270911      -20.0184724961       58.4061331843  TIP3      2814            0.0000000000
     17018      2878  TIP3      H2             10.6381219461      -19.9704715640       57.9082243021  TIP3      2814            0.0000000000
     17019      2879  TIP3      OH2            11.0007204440      -18.0317128961       62.7007464239  TIP3      2815            0.0000000000
     17020      2879  TIP3      H1             11.3165388713      -18.9420975232       62.8928397052  TIP3      2815            0.0000000000
     17021      2879  TIP3      H2             11.8350775663      -17.6318771846       62.4197755493  TIP3      2815            0.0000000000
     17022      2880  TIP3      OH2            11.6475520728      -17.4387213559       68.1931358702  TIP3      2816            0.0000000000
     17023      2880  TIP3      H1             12.6273267574      -17.3486080579       68.1745342975  TIP3      2816            0.0000000000
     17024      2880  TIP3      H2             11.4988527298      -17.3714195457       69.1550233274  TIP3      2816            0.0000000000
     17025      2881  TIP3      OH2            11.7492817047      -16.7472314401       70.8797069577  TIP3      2817            0.0000000000
     17026      2881  TIP3      H1             10.8703648859      -16.5006027729       71.2735073693  TIP3      2817            0.0000000000
     17027      2881  TIP3      H2             12.2346149889      -15.9088370218       70.7126392575  TIP3      2817            0.0000000000
     17028      2882  TIP3      OH2            11.7316201952      -20.7765866331       62.7703289407  TIP3      2818            0.0000000000
     17029      2882  TIP3      H1             11.9769966535      -21.1954643740       63.6374956824  TIP3      2818            0.0000000000
     17030      2882  TIP3      H2             11.0997679800      -21.4300367748       62.4107978873  TIP3      2818            0.0000000000
     17031      2883  TIP3      OH2            -2.8219518848      -19.9317004095       67.3899800248  TIP3      2819            0.0000000000
     17032      2883  TIP3      H1             -2.3631448697      -20.7563465839       67.6422541367  TIP3      2819            0.0000000000
     17033      2883  TIP3      H2             -2.2206036439      -19.2456430100       67.7083412750  TIP3      2819            0.0000000000
     17034      2884  TIP3      OH2            -4.5515460566      -16.9477028121       68.3449416849  TIP3      2820            0.0000000000
     17035      2884  TIP3      H1             -3.9572116172      -17.2123986374       67.6140640610  TIP3      2820            0.0000000000
     17036      2884  TIP3      H2             -4.0519895660      -16.1874166201       68.6808737915  TIP3      2820            0.0000000000
     17037      2885  TIP3      OH2            13.5653860438      -20.7425739656       59.4696476698  TIP3      2821            0.0000000000
     17038      2885  TIP3      H1             13.8889010831      -21.4098470300       58.8157069573  TIP3      2821            0.0000000000
     17039      2885  TIP3      H2             14.2221462622      -20.0342638937       59.3961145472  TIP3      2821            0.0000000000
     17040      2886  TIP3      OH2            -4.1936132732      -20.5474903101       62.5920526718  TIP3      2822            0.0000000000
     17041      2886  TIP3      H1             -5.1251570186      -20.5330430967       62.3203101368  TIP3      2822            0.0000000000
     17042      2886  TIP3      H2             -3.7410105627      -20.1837074057       61.8049561757  TIP3      2822            0.0000000000
     17043      2887  TIP3      OH2            10.5747756430       -5.7433632676       64.4197614938  TIP3      2823            0.0000000000
     17044      2887  TIP3      H1             11.2728377939       -6.0342847802       63.8074786976  TIP3      2823            0.0000000000
     17045      2887  TIP3      H2             11.0736971100       -5.2428062374       65.0890721013  TIP3      2823            0.0000000000
     17046      2888  TIP3      OH2            -4.1264090711      -21.7400600442       70.9891951929  TIP3      2824            0.0000000000
     17047      2888  TIP3      H1             -4.7997208549      -22.3464976914       71.3186900543  TIP3      2824            0.0000000000
     17048      2888  TIP3      H2             -4.5873173336      -21.2345716806       70.2897311330  TIP3      2824            0.0000000000
     17049      2889  TIP3      OH2             0.9448454789       -7.7763571906       71.2470812368  TIP3      2825            0.0000000000
     17050      2889  TIP3      H1              0.6133982643       -6.9249724190       70.9373278305  TIP3      2825            0.0000000000
     17051      2889  TIP3      H2              1.8784568105       -7.7298558762       70.9558766776  TIP3      2825            0.0000000000
     17052      2890  TIP3      OH2            -1.6838232855       -4.5188814689       71.1121299918  TIP3      2826            0.0000000000
     17053      2890  TIP3      H1             -2.4685620292       -4.0691049864       70.7642365731  TIP3      2826            0.0000000000
     17054      2890  TIP3      H2             -1.9513530117       -4.8394872590       72.0060957665  TIP3      2826            0.0000000000
     17055      2891  TIP3      OH2             0.8014590031       -4.9475428329       70.2782639370  TIP3      2827            0.0000000000
     17056      2891  TIP3      H1             -0.0841251106       -4.7967585521       70.6830873619  TIP3      2827            0.0000000000
     17057      2891  TIP3      H2              0.7468331664       -4.3725189464       69.4958512738  TIP3      2827            0.0000000000
     17058      2892  TIP3      OH2             5.5067753554       -5.1035484656       69.4428912574  TIP3      2828            0.0000000000
     17059      2892  TIP3      H1              5.0747397649       -4.5589730935       68.7629785278  TIP3      2828            0.0000000000
     17060      2892  TIP3      H2              5.6451525428       -4.4646105959       70.1713517859  TIP3      2828            0.0000000000
     17061      2893  TIP3      OH2             7.7575413214       -6.3735790134       70.4530171331  TIP3      2829            0.0000000000
     17062      2893  TIP3      H1              6.9769472412       -5.9710511449       70.0485930648  TIP3      2829            0.0000000000
     17063      2893  TIP3      H2              8.3730107043       -5.6062813374       70.3696781150  TIP3      2829            0.0000000000
     17064      2894  TIP3      OH2             9.7686526865       -4.4873899819       70.1840149252  TIP3      2830            0.0000000000
     17065      2894  TIP3      H1             10.2942301811       -3.6954724598       70.4414204293  TIP3      2830            0.0000000000
     17066      2894  TIP3      H2             10.5138259602       -5.0685375359       69.9564529643  TIP3      2830            0.0000000000
     17067      2895  TIP3      OH2            -2.1397082562       -5.9337425936       68.0981679489  TIP3      2831            0.0000000000
     17068      2895  TIP3      H1             -2.2564754275       -6.3903497227       68.9604551800  TIP3      2831            0.0000000000
     17069      2895  TIP3      H2             -1.3219501347       -6.3597618518       67.7617466262  TIP3      2831            0.0000000000
     17070      2896  TIP3      OH2            -0.0986876638       -7.2497953882       66.8031367080  TIP3      2832            0.0000000000
     17071      2896  TIP3      H1             -0.2525034719       -8.1809897962       67.0584752395  TIP3      2832            0.0000000000
     17072      2896  TIP3      H2              0.7663447654       -7.0857569866       67.2303539404  TIP3      2832            0.0000000000
     17073      2897  TIP3      OH2             2.4934530618       -6.7624005462       67.6695763327  TIP3      2833            0.0000000000
     17074      2897  TIP3      H1              2.6420733706       -7.7000773954       67.4598697141  TIP3      2833            0.0000000000
     17075      2897  TIP3      H2              2.5720888536       -6.7729326865       68.6334154276  TIP3      2833            0.0000000000
     17076      2898  TIP3      OH2             5.8525386084      -20.9956836238       66.8394778268  TIP3      2834            0.0000000000
     17077      2898  TIP3      H1              5.2736648512      -21.7200296205       67.1564061749  TIP3      2834            0.0000000000
     17078      2898  TIP3      H2              6.5019646288      -21.5295016446       66.3536072525  TIP3      2834            0.0000000000
     17079      2899  TIP3      OH2            11.1967421002      -22.4850986005       67.0762576015  TIP3      2835            0.0000000000
     17080      2899  TIP3      H1             11.7800819938      -22.3976569501       66.2872314508  TIP3      2835            0.0000000000
     17081      2899  TIP3      H2             10.3296905116      -22.7426527073       66.7360618664  TIP3      2835            0.0000000000
     17082      2900  TIP3      OH2            12.7439684708      -21.7529158664       64.9964582577  TIP3      2836            0.0000000000
     17083      2900  TIP3      H1             13.4330909318      -22.4305182433       64.8621706877  TIP3      2836            0.0000000000
     17084      2900  TIP3      H2             13.2982883721      -20.9742695257       65.2365676019  TIP3      2836            0.0000000000
     17085      2901  TIP3      OH2            -1.7249744956      -22.5401037982       64.6926910741  TIP3      2837            0.0000000000
     17086      2901  TIP3      H1             -2.4611446601      -22.6762981978       64.0843555933  TIP3      2837            0.0000000000
     17087      2901  TIP3      H2             -1.2210307592      -23.3553843533       64.5996369736  TIP3      2837            0.0000000000
     17088      2902  TIP3      OH2            -2.8087509124      -22.3028171092       60.9912506320  TIP3      2838            0.0000000000
     17089      2902  TIP3      H1             -2.5497342033      -21.8757536655       60.1578802019  TIP3      2838            0.0000000000
     17090      2902  TIP3      H2             -3.7219128902      -21.9994673716       61.0846215022  TIP3      2838            0.0000000000
     17091      2903  TIP3      OH2             2.7824225775      -22.3821333971       64.3983997438  TIP3      2839            0.0000000000
     17092      2903  TIP3      H1              3.7195707653      -22.1432642672       64.3776956957  TIP3      2839            0.0000000000
     17093      2903  TIP3      H2              2.7438837118      -22.9365553737       65.1975154967  TIP3      2839            0.0000000000
     17094      2904  TIP3      OH2             8.3457374643      -22.5162217699       66.0242903709  TIP3      2840            0.0000000000
     17095      2904  TIP3      H1              8.5300547740      -22.4274253380       65.0874512263  TIP3      2840            0.0000000000
     17096      2904  TIP3      H2              8.2307231675      -23.4659285091       66.1513308227  TIP3      2840            0.0000000000
     17097      2905  TIP3      OH2             9.8564917405      -22.3900442240       61.8127565989  TIP3      2841            0.0000000000
     17098      2905  TIP3      H1              9.0682310046      -21.8227061247       61.6820168144  TIP3      2841            0.0000000000
     17099      2905  TIP3      H2              9.5458841557      -23.1552593702       62.3114023067  TIP3      2841            0.0000000000
     17100      2906  TIP3      OH2            -3.0191783165       -6.7946922938       61.4573386469  TIP3      2842            0.0000000000
     17101      2906  TIP3      H1             -3.6524605590       -6.8186847941       60.7159165907  TIP3      2842            0.0000000000
     17102      2906  TIP3      H2             -3.0092146158       -5.8327989678       61.5893615418  TIP3      2842            0.0000000000
     17103      2907  TIP3      OH2            -1.1415821254      -20.8369578719       58.9205302996  TIP3      2843            0.0000000000
     17104      2907  TIP3      H1             -0.5682884061      -21.3846984230       58.3603977365  TIP3      2843            0.0000000000
     17105      2907  TIP3      H2             -0.4810620185      -20.4726400292       59.5412737157  TIP3      2843            0.0000000000
     17106      2908  TIP3      OH2             3.8181636636      -20.5458489826       61.3445255651  TIP3      2844            0.0000000000
     17107      2908  TIP3      H1              4.2105422106      -21.0887325107       62.0510832087  TIP3      2844            0.0000000000
     17108      2908  TIP3      H2              3.9906928008      -19.6655897515       61.7349728253  TIP3      2844            0.0000000000
     17109      2909  TIP3      OH2             5.8812311342       -5.4403371550       59.7396937790  TIP3      2845            0.0000000000
     17110      2909  TIP3      H1              6.8154463497       -5.2779765172       59.5254009556  TIP3      2845            0.0000000000
     17111      2909  TIP3      H2              5.6573941965       -6.0039572632       58.9681906356  TIP3      2845            0.0000000000
     17112      2910  TIP3      OH2            12.5387696639       -5.9883493188       62.4987110587  TIP3      2846            0.0000000000
     17113      2910  TIP3      H1             12.3632690113       -6.7766004974       61.9327920350  TIP3      2846            0.0000000000
     17114      2910  TIP3      H2             12.4765349218       -5.2563738557       61.8472504960  TIP3      2846            0.0000000000
     17115      2911  TIP3      OH2            -1.2257268942       -5.7856452008       58.3711494268  TIP3      2847            0.0000000000
     17116      2911  TIP3      H1             -1.4908310928       -5.5328986286       59.2665360173  TIP3      2847            0.0000000000
     17117      2911  TIP3      H2             -0.4453574224       -6.3542894116       58.5209673591  TIP3      2847            0.0000000000
     17118      2912  TIP3      OH2            17.4113260457      -14.3357081593       69.6531262275  TIP3      2848            0.0000000000
     17119      2912  TIP3      H1             17.5327655164      -15.0828182346       70.2637580115  TIP3      2848            0.0000000000
     17120      2912  TIP3      H2             18.2289665663      -13.8526337269       69.8228751150  TIP3      2848            0.0000000000
     17121      2913  TIP3      OH2            18.3395710355       -9.9598783932       67.9869954767  TIP3      2849            0.0000000000
     17122      2913  TIP3      H1             18.1079167381      -10.8761630393       67.7646943453  TIP3      2849            0.0000000000
     17123      2913  TIP3      H2             19.2936594830      -10.0985603194       68.1421269272  TIP3      2849            0.0000000000
     17124      2914  TIP3      OH2            14.9964865218      -16.4056005024       63.5688730092  TIP3      2850            0.0000000000
     17125      2914  TIP3      H1             14.5984063791      -15.5463527673       63.4208141594  TIP3      2850            0.0000000000
     17126      2914  TIP3      H2             14.4810769432      -16.9865212162       62.9827504653  TIP3      2850            0.0000000000
     17127      2915  TIP3      OH2            15.9272223544      -14.2513665345       65.6981277082  TIP3      2851            0.0000000000
     17128      2915  TIP3      H1             16.1853190088      -15.1036202465       66.1414216425  TIP3      2851            0.0000000000
     17129      2915  TIP3      H2             16.6297462178      -14.2132798875       65.0239890132  TIP3      2851            0.0000000000
     17130      2916  TIP3      OH2            19.4465138259      -19.0552354262       65.9984944168  TIP3      2852            0.0000000000
     17131      2916  TIP3      H1             19.9894944159      -18.3589899213       65.5559834823  TIP3      2852            0.0000000000
     17132      2916  TIP3      H2             19.3504817931      -19.7309721526       65.2999280465  TIP3      2852            0.0000000000
     17133      2917  TIP3      OH2            16.4322666474      -16.6953988723       66.7493931362  TIP3      2853            0.0000000000
     17134      2917  TIP3      H1             17.0788436875      -17.2519890450       67.2296127957  TIP3      2853            0.0000000000
     17135      2917  TIP3      H2             16.5446075792      -17.0594134430       65.8506784486  TIP3      2853            0.0000000000
     17136      2918  TIP3      OH2            21.5797534903      -15.1745105842       66.0767899954  TIP3      2854            0.0000000000
     17137      2918  TIP3      H1             22.2428225343      -15.7825886498       66.4611697076  TIP3      2854            0.0000000000
     17138      2918  TIP3      H2             21.0280294763      -15.8264821199       65.5913425174  TIP3      2854            0.0000000000
     17139      2919  TIP3      OH2            18.6094527418      -20.1998453097       70.0851701455  TIP3      2855            0.0000000000
     17140      2919  TIP3      H1             18.3458664457      -19.6594183400       69.3056193889  TIP3      2855            0.0000000000
     17141      2919  TIP3      H2             17.8601920280      -20.0102778434       70.7070929794  TIP3      2855            0.0000000000
     17142      2920  TIP3      OH2            21.1284642657      -12.5609076090       70.3378814969  TIP3      2856            0.0000000000
     17143      2920  TIP3      H1             20.3714102740      -11.9308948963       70.4244766699  TIP3      2856            0.0000000000
     17144      2920  TIP3      H2             21.8003316463      -11.9307078111       70.0473422169  TIP3      2856            0.0000000000
     17145      2921  TIP3      OH2            18.2378295802      -18.3258688545       68.1219785089  TIP3      2857            0.0000000000
     17146      2921  TIP3      H1             18.9122293731      -17.6610417737       68.3554862060  TIP3      2857            0.0000000000
     17147      2921  TIP3      H2             18.7023504164      -18.7843420580       67.3630530525  TIP3      2857            0.0000000000
     17148      2922  TIP3      OH2            19.5695487480      -10.4965765897       70.6627955036  TIP3      2858            0.0000000000
     17149      2922  TIP3      H1             19.6077126607       -9.5266695335       70.7898149210  TIP3      2858            0.0000000000
     17150      2922  TIP3      H2             18.8489137277      -10.6531364821       71.3264311457  TIP3      2858            0.0000000000
     17151      2923  TIP3      OH2            15.6728841410      -11.0005174212       61.9238897372  TIP3      2859            0.0000000000
     17152      2923  TIP3      H1             15.4979838314      -10.6299722748       61.0360858137  TIP3      2859            0.0000000000
     17153      2923  TIP3      H2             15.8301697855      -10.1759983056       62.4264919304  TIP3      2859            0.0000000000
     17154      2924  TIP3      OH2            22.8521393381      -22.7641123663       67.8234196976  TIP3      2860            0.0000000000
     17155      2924  TIP3      H1             22.6712659019      -23.6699392309       67.5244221995  TIP3      2860            0.0000000000
     17156      2924  TIP3      H2             21.9853155619      -22.3427084536       67.7407080206  TIP3      2860            0.0000000000
     17157      2925  TIP3      OH2            19.9283616679      -13.2492998681       64.8846486207  TIP3      2861            0.0000000000
     17158      2925  TIP3      H1             19.6715082533      -13.6178732927       64.0052523235  TIP3      2861            0.0000000000
     17159      2925  TIP3      H2             20.5713396043      -13.9199553081       65.2138060719  TIP3      2861            0.0000000000
     17160      2926  TIP3      OH2            21.2335748596       -9.9164635835       67.5848035769  TIP3      2862            0.0000000000
     17161      2926  TIP3      H1             21.2554369742      -10.3506450990       66.7230083525  TIP3      2862            0.0000000000
     17162      2926  TIP3      H2             22.1286461031      -10.1036696984       67.9146536749  TIP3      2862            0.0000000000
     17163      2927  TIP3      OH2            20.3082465316      -14.5129759795       68.6170283515  TIP3      2863            0.0000000000
     17164      2927  TIP3      H1             20.8473578266      -14.4621059180       67.7973802415  TIP3      2863            0.0000000000
     17165      2927  TIP3      H2             20.7112628479      -13.7978558956       69.1562066598  TIP3      2863            0.0000000000
     17166      2928  TIP3      OH2            18.9090338511      -14.2392947663       62.5327301742  TIP3      2864            0.0000000000
     17167      2928  TIP3      H1             18.6807469244      -13.4601307832       61.9875635599  TIP3      2864            0.0000000000
     17168      2928  TIP3      H2             18.2996953003      -14.9143700850       62.2249722936  TIP3      2864            0.0000000000
     17169      2929  TIP3      OH2            15.1100399604      -11.8009748523       71.3219752705  TIP3      2865            0.0000000000
     17170      2929  TIP3      H1             14.5937384599      -11.8501956897       70.5134426590  TIP3      2865            0.0000000000
     17171      2929  TIP3      H2             15.0645654242      -12.7145279798       71.6436007984  TIP3      2865            0.0000000000
     17172      2930  TIP3      OH2            14.8368081072       -9.0846552477       68.1424215964  TIP3      2866            0.0000000000
     17173      2930  TIP3      H1             15.8045619918       -9.1506318547       68.1296588793  TIP3      2866            0.0000000000
     17174      2930  TIP3      H2             14.7278164497       -8.2796895034       68.6870030127  TIP3      2866            0.0000000000
     17175      2931  TIP3      OH2            18.0772493763       -6.2019233070       64.3280852345  TIP3      2867            0.0000000000
     17176      2931  TIP3      H1             18.2077494038       -6.5898564053       65.2238022910  TIP3      2867            0.0000000000
     17177      2931  TIP3      H2             17.2149045848       -6.5922292815       64.1041899729  TIP3      2867            0.0000000000
     17178      2932  TIP3      OH2            17.3896009426      -10.6197319456      -72.8665653851  TIP3      2868            0.0000000000
     17179      2932  TIP3      H1             17.5023882607      -10.7598351679      -71.9093607338  TIP3      2868            0.0000000000
     17180      2932  TIP3      H2             16.4786882718      -10.9063352920      -73.0682628286  TIP3      2868            0.0000000000
     17181      2933  TIP3      OH2            20.1849956393      -21.4150539911       68.2027932082  TIP3      2869            0.0000000000
     17182      2933  TIP3      H1             19.3671913136      -21.8624453457       67.8605168556  TIP3      2869            0.0000000000
     17183      2933  TIP3      H2             19.7821588560      -20.8761116444       68.9015313837  TIP3      2869            0.0000000000
     17184      2934  TIP3      OH2            20.0923241541      -17.0299012399       69.6273714593  TIP3      2870            0.0000000000
     17185      2934  TIP3      H1             19.2673562723      -17.0689057062       70.1453891382  TIP3      2870            0.0000000000
     17186      2934  TIP3      H2             20.0226537536      -16.1572963345       69.1846821509  TIP3      2870            0.0000000000
     17187      2935  TIP3      OH2            20.0339129898      -16.8388838966       64.3520804536  TIP3      2871            0.0000000000
     17188      2935  TIP3      H1             19.1293390634      -17.1970793087       64.2846902984  TIP3      2871            0.0000000000
     17189      2935  TIP3      H2             20.4737259468      -17.2110367593       63.5623124793  TIP3      2871            0.0000000000
     17190      2936  TIP3      OH2            17.7906928818      -16.7495373823       71.2100834254  TIP3      2872            0.0000000000
     17191      2936  TIP3      H1             17.7450478912      -16.3984960846       72.1208979148  TIP3      2872            0.0000000000
     17192      2936  TIP3      H2             17.3277471847      -17.5974870568       71.3509260704  TIP3      2872            0.0000000000
     17193      2937  TIP3      OH2            20.9789041031      -19.5126383463       58.1230459598  TIP3      2873            0.0000000000
     17194      2937  TIP3      H1             20.4925010271      -19.8293510359       58.9066893200  TIP3      2873            0.0000000000
     17195      2937  TIP3      H2             20.3623212826      -18.9378867495       57.6444884823  TIP3      2873            0.0000000000
     17196      2938  TIP3      OH2            14.4122352554      -19.6108199582       65.2211321053  TIP3      2874            0.0000000000
     17197      2938  TIP3      H1             15.0959627416      -19.7191388012       65.9111869126  TIP3      2874            0.0000000000
     17198      2938  TIP3      H2             14.8056342982      -20.0669466309       64.4486570259  TIP3      2874            0.0000000000
     17199      2939  TIP3      OH2            15.6272299242      -18.9353359045       60.5651454948  TIP3      2875            0.0000000000
     17200      2939  TIP3      H1             16.1631156468      -18.3505386285       60.0026728424  TIP3      2875            0.0000000000
     17201      2939  TIP3      H2             14.9499780655      -18.3053943783       60.8783668891  TIP3      2875            0.0000000000
     17202      2940  TIP3      OH2            22.0015717076      -18.8251710547       65.9209647889  TIP3      2876            0.0000000000
     17203      2940  TIP3      H1             21.3107176418      -19.4992665500       65.9746616403  TIP3      2876            0.0000000000
     17204      2940  TIP3      H2             22.7808165289      -19.3686940057       66.1298442006  TIP3      2876            0.0000000000
     17205      2941  TIP3      OH2            17.4032679350      -17.8134607542       64.2930306613  TIP3      2877            0.0000000000
     17206      2941  TIP3      H1             16.5432180249      -17.6587349446       63.8589231040  TIP3      2877            0.0000000000
     17207      2941  TIP3      H2             17.6740354997      -18.6749023429       63.9245819175  TIP3      2877            0.0000000000
     17208      2942  TIP3      OH2            21.1530631624      -17.7572867292       61.9123278739  TIP3      2878            0.0000000000
     17209      2942  TIP3      H1             22.0627983003      -17.5243298418       62.1477449271  TIP3      2878            0.0000000000
     17210      2942  TIP3      H2             20.8533222512      -17.0642465037       61.2903325241  TIP3      2878            0.0000000000
     17211      2943  TIP3      OH2            19.8088817584      -16.6247852339       59.4879686700  TIP3      2879            0.0000000000
     17212      2943  TIP3      H1             19.2130742131      -16.9634903663       58.7962597571  TIP3      2879            0.0000000000
     17213      2943  TIP3      H2             20.5853336808      -16.3718527395       58.9625694512  TIP3      2879            0.0000000000
     17214      2944  TIP3      OH2            18.9342201107      -20.3968037275       63.7128733206  TIP3      2880            0.0000000000
     17215      2944  TIP3      H1             18.5083056951      -21.2893576959       63.7743058922  TIP3      2880            0.0000000000
     17216      2944  TIP3      H2             19.7038631512      -20.5744779244       63.1606218313  TIP3      2880            0.0000000000
     17217      2945  TIP3      OH2            22.4403733597      -18.3877378286       70.0350842812  TIP3      2881            0.0000000000
     17218      2945  TIP3      H1             21.7947739897      -17.7410709956       69.6723521452  TIP3      2881            0.0000000000
     17219      2945  TIP3      H2             23.1025398817      -17.8438502430       70.4387585996  TIP3      2881            0.0000000000
     17220      2946  TIP3      OH2            22.9640483018      -12.0805942829       61.2289634626  TIP3      2882            0.0000000000
     17221      2946  TIP3      H1             22.1380212814      -12.5842492038       61.0995925695  TIP3      2882            0.0000000000
     17222      2946  TIP3      H2             22.9716247485      -11.9441259635       62.1924256263  TIP3      2882            0.0000000000
     17223      2947  TIP3      OH2            18.2330007210      -12.6482013901       67.2143810681  TIP3      2883            0.0000000000
     17224      2947  TIP3      H1             18.8901184036      -12.7088224140       66.4899149008  TIP3      2883            0.0000000000
     17225      2947  TIP3      H2             18.3877752874      -13.4861381379       67.6906580011  TIP3      2883            0.0000000000
     17226      2948  TIP3      OH2            20.5884272043       -9.1536518888       64.6829999062  TIP3      2884            0.0000000000
     17227      2948  TIP3      H1             21.0843749948       -8.3832779746       64.3661244623  TIP3      2884            0.0000000000
     17228      2948  TIP3      H2             19.7108996125       -8.9581561679       64.3303468709  TIP3      2884            0.0000000000
     17229      2949  TIP3      OH2            16.4022222621      -14.3637303789       59.1767226447  TIP3      2885            0.0000000000
     17230      2949  TIP3      H1             16.9583236862      -13.6790563561       59.5867778716  TIP3      2885            0.0000000000
     17231      2949  TIP3      H2             15.4961354654      -14.0628500618       59.3916425486  TIP3      2885            0.0000000000
     17232      2950  TIP3      OH2            21.9867354271      -11.5309106278       64.0977712836  TIP3      2886            0.0000000000
     17233      2950  TIP3      H1             21.6718198314      -10.6170285874       64.2249098410  TIP3      2886            0.0000000000
     17234      2950  TIP3      H2             21.2729032189      -12.0368659667       64.5330425718  TIP3      2886            0.0000000000
     17235      2951  TIP3      OH2            22.5732655932       -7.3493642218       70.4774187280  TIP3      2887            0.0000000000
     17236      2951  TIP3      H1             22.9590299032       -6.4783464269       70.3599673986  TIP3      2887            0.0000000000
     17237      2951  TIP3      H2             23.1291432512       -7.7013714944       71.1884024844  TIP3      2887            0.0000000000
     17238      2952  TIP3      OH2            20.7251587627       -6.4969508993       63.6374215644  TIP3      2888            0.0000000000
     17239      2952  TIP3      H1             19.7473495742       -6.4642743415       63.7813565251  TIP3      2888            0.0000000000
     17240      2952  TIP3      H2             20.9603433099       -5.6585786180       64.0520624419  TIP3      2888            0.0000000000
     17241      2953  TIP3      OH2            16.7691329460      -19.5031652178       71.7788655024  TIP3      2889            0.0000000000
     17242      2953  TIP3      H1             15.8622833694      -19.1916777120       71.8903599827  TIP3      2889            0.0000000000
     17243      2953  TIP3      H2             16.8241959648      -20.2412948670       72.4269158270  TIP3      2889            0.0000000000
     17244      2954  TIP3      OH2            16.7093450949       -7.6833156710       70.3356640721  TIP3      2890            0.0000000000
     17245      2954  TIP3      H1             16.8251854449       -8.6393720644       70.4230577450  TIP3      2890            0.0000000000
     17246      2954  TIP3      H2             16.6956253492       -7.3859636869       71.2622887699  TIP3      2890            0.0000000000
     17247      2955  TIP3      OH2            22.3412362404       -9.1450850581       57.6314689371  TIP3      2891            0.0000000000
     17248      2955  TIP3      H1             22.5794543751       -9.9394196269       57.1410730960  TIP3      2891            0.0000000000
     17249      2955  TIP3      H2             22.0987869585       -9.5576996725       58.4883243525  TIP3      2891            0.0000000000
     17250      2956  TIP3      OH2            21.2228557883       -9.6718795070       60.2004846030  TIP3      2892            0.0000000000
     17251      2956  TIP3      H1             21.5757403611      -10.2247091412       60.9110769731  TIP3      2892            0.0000000000
     17252      2956  TIP3      H2             21.3396385338       -8.7496523748       60.5238226723  TIP3      2892            0.0000000000
     17253      2957  TIP3      OH2            17.8146180654      -12.4163732213       60.6585178269  TIP3      2893            0.0000000000
     17254      2957  TIP3      H1             17.0957850877      -12.0018978301       61.1649573378  TIP3      2893            0.0000000000
     17255      2957  TIP3      H2             18.3030822455      -11.6416619169       60.3342196415  TIP3      2893            0.0000000000
     17256      2958  TIP3      OH2            21.3874893349       -6.9877102994       60.8657102674  TIP3      2894            0.0000000000
     17257      2958  TIP3      H1             21.4925498097       -6.1762108732       60.3049746939  TIP3      2894            0.0000000000
     17258      2958  TIP3      H2             21.1515799245       -6.6270818107       61.7416266920  TIP3      2894            0.0000000000
     17259      2959  TIP3      OH2            19.9031934022      -20.1585946025       60.4497493664  TIP3      2895            0.0000000000
     17260      2959  TIP3      H1             19.9698350391      -19.3066398281       60.9017861892  TIP3      2895            0.0000000000
     17261      2959  TIP3      H2             20.8135815747      -20.4823874189       60.6639401853  TIP3      2895            0.0000000000
     17262      2960  TIP3      OH2            18.3111211832       -9.7987362947       59.4929911215  TIP3      2896            0.0000000000
     17263      2960  TIP3      H1             19.0260111075       -9.2385288593       59.8429561921  TIP3      2896            0.0000000000
     17264      2960  TIP3      H2             18.8480494189      -10.2911171570       58.8401652335  TIP3      2896            0.0000000000
     17265      2961  TIP3      OH2            16.6551839473      -17.1426700494       58.6703323059  TIP3      2897            0.0000000000
     17266      2961  TIP3      H1             16.7080248566      -16.1902447273       58.8989632541  TIP3      2897            0.0000000000
     17267      2961  TIP3      H2             15.7594042303      -17.2606652723       58.3438159910  TIP3      2897            0.0000000000
     17268      2962  TIP3      OH2            17.7968092103      -22.0340922009       67.4816574853  TIP3      2898            0.0000000000
     17269      2962  TIP3      H1             17.3747702162      -22.1463695693       66.6111643871  TIP3      2898            0.0000000000
     17270      2962  TIP3      H2             17.3399044471      -22.8019452559       67.9092751102  TIP3      2898            0.0000000000
     17271      2963  TIP3      OH2            16.3902609731       -8.4647938851       63.5785304532  TIP3      2899            0.0000000000
     17272      2963  TIP3      H1             15.5636425886       -7.9661729407       63.4966805205  TIP3      2899            0.0000000000
     17273      2963  TIP3      H2             16.8851725394       -8.0312843089       62.8697874999  TIP3      2899            0.0000000000
     17274      2964  TIP3      OH2            19.8352805580      -11.7171239677       57.8413092020  TIP3      2900            0.0000000000
     17275      2964  TIP3      H1             20.0261349329      -12.4186607888       58.4759506336  TIP3      2900            0.0000000000
     17276      2964  TIP3      H2             20.6276359536      -11.7871197914       57.2719015874  TIP3      2900            0.0000000000
     17277      2965  TIP3      OH2            20.9953588574      -13.6655303952       60.2982870988  TIP3      2901            0.0000000000
     17278      2965  TIP3      H1             20.5276441435      -14.2411435257       60.9171612645  TIP3      2901            0.0000000000
     17279      2965  TIP3      H2             21.3877637821      -14.2894690969       59.6498570083  TIP3      2901            0.0000000000
     17280      2966  TIP3      OH2            22.1907935085      -15.3792943223       58.4920971562  TIP3      2902            0.0000000000
     17281      2966  TIP3      H1             21.9594810145      -15.6078190063       57.5723182472  TIP3      2902            0.0000000000
     17282      2966  TIP3      H2             23.1538092935      -15.4025290969       58.4648008799  TIP3      2902            0.0000000000
     17283      2967  TIP3      OH2            21.1188348055      -20.3758744721       70.7476275165  TIP3      2903            0.0000000000
     17284      2967  TIP3      H1             21.6098199237      -19.5827078294       70.4314515838  TIP3      2903            0.0000000000
     17285      2967  TIP3      H2             20.1903451368      -20.0997525199       70.6336716545  TIP3      2903            0.0000000000
     17286      2968  TIP3      OH2            22.8601605011      -14.5643438106       71.2525101784  TIP3      2904            0.0000000000
     17287      2968  TIP3      H1             23.5252951730      -14.6495069807       70.5673166296  TIP3      2904            0.0000000000
     17288      2968  TIP3      H2             22.3420171370      -13.7752566478       70.9901612432  TIP3      2904            0.0000000000
     17289      2969  TIP3      OH2            21.3493466085      -22.4896121760       72.0133480728  TIP3      2905            0.0000000000
     17290      2969  TIP3      H1             21.4933255093      -21.5921518169       71.6186606850  TIP3      2905            0.0000000000
     17291      2969  TIP3      H2             20.9952212679      -22.9314106550       71.2347676853  TIP3      2905            0.0000000000
     17292      2970  TIP3      OH2            22.0467117379       -4.6954840514       59.5895126366  TIP3      2906            0.0000000000
     17293      2970  TIP3      H1             23.0072841267       -4.6395183855       59.5761654513  TIP3      2906            0.0000000000
     17294      2970  TIP3      H2             21.8952389012       -4.1494296702       58.7992985804  TIP3      2906            0.0000000000
     17295      2971  TIP3      OH2            15.5471101945      -10.1671275116       59.0565123226  TIP3      2907            0.0000000000
     17296      2971  TIP3      H1             16.5171414304      -10.0526505224       59.2039227577  TIP3      2907            0.0000000000
     17297      2971  TIP3      H2             15.5734186287      -10.7815684018       58.2826117128  TIP3      2907            0.0000000000
     17298      2972  TIP3      OH2            14.3510692782       -4.7869809348       63.9869161473  TIP3      2908            0.0000000000
     17299      2972  TIP3      H1             13.6182383319       -5.2755613245       63.5504243136  TIP3      2908            0.0000000000
     17300      2972  TIP3      H2             14.6259491794       -5.4220493897       64.6742480874  TIP3      2908            0.0000000000
     17301      2973  TIP3      OH2            15.1867310644       -6.6275031363       65.8679115528  TIP3      2909            0.0000000000
     17302      2973  TIP3      H1             14.7905849605       -7.4759638061       66.0982130188  TIP3      2909            0.0000000000
     17303      2973  TIP3      H2             15.4200009137       -6.2779875244       66.7461429957  TIP3      2909            0.0000000000
     17304      2974  TIP3      OH2            15.2657849301      -13.4886655749       68.2992348338  TIP3      2910            0.0000000000
     17305      2974  TIP3      H1             15.5635740570      -13.7803802525       67.4186293775  TIP3      2910            0.0000000000
     17306      2974  TIP3      H2             16.0818471728      -13.7422324428       68.8010245067  TIP3      2910            0.0000000000
     17307      2975  TIP3      OH2            16.0278630419      -19.9369798426       67.4008579493  TIP3      2911            0.0000000000
     17308      2975  TIP3      H1             16.4537936466      -20.7888874770       67.6240149920  TIP3      2911            0.0000000000
     17309      2975  TIP3      H2             16.6779260200      -19.2821790045       67.6882620058  TIP3      2911            0.0000000000
     17310      2976  TIP3      OH2            14.2863100359      -16.9135545178       68.2992807409  TIP3      2912            0.0000000000
     17311      2976  TIP3      H1             14.9091030366      -17.2345277060       67.6181691820  TIP3      2912            0.0000000000
     17312      2976  TIP3      H2             14.8336411686      -16.2410465250       68.7236718445  TIP3      2912            0.0000000000
     17313      2977  TIP3      OH2            14.6699142231      -20.5378812468       62.5924065112  TIP3      2913            0.0000000000
     17314      2977  TIP3      H1             13.7391404132      -20.5445416249       62.3304661420  TIP3      2913            0.0000000000
     17315      2977  TIP3      H2             15.1206119221      -20.1919531548       61.8039742732  TIP3      2913            0.0000000000
     17316      2978  TIP3      OH2            14.7169795397      -21.6976304708       71.0451285183  TIP3      2914            0.0000000000
     17317      2978  TIP3      H1             14.0737238890      -22.3781830341       71.2754417565  TIP3      2914            0.0000000000
     17318      2978  TIP3      H2             14.3098485032      -21.2741554376       70.2608828185  TIP3      2914            0.0000000000
     17319      2979  TIP3      OH2            19.7562325150       -7.7866536957       71.1958488812  TIP3      2915            0.0000000000
     17320      2979  TIP3      H1             19.4587026322       -6.9117305853       70.9256752557  TIP3      2915            0.0000000000
     17321      2979  TIP3      H2             20.7013679201       -7.7485482444       70.9658752084  TIP3      2915            0.0000000000
     17322      2980  TIP3      OH2            17.1710337495       -4.5033780914       71.1161141531  TIP3      2916            0.0000000000
     17323      2980  TIP3      H1             16.3651077312       -4.0840829278       70.7696265187  TIP3      2916            0.0000000000
     17324      2980  TIP3      H2             16.9030160368       -4.8545133351       71.9980434960  TIP3      2916            0.0000000000
     17325      2981  TIP3      OH2            19.6840586508       -4.9762145627       70.2360622922  TIP3      2917            0.0000000000
     17326      2981  TIP3      H1             18.8380679763       -4.8408680132       70.7221950517  TIP3      2917            0.0000000000
     17327      2981  TIP3      H2             19.5594302038       -4.3502359302       69.4973009946  TIP3      2917            0.0000000000
     17328      2982  TIP3      OH2            16.7273649586       -5.9369750205       68.0907181825  TIP3      2918            0.0000000000
     17329      2982  TIP3      H1             16.6120550027       -6.3981801994       68.9541436394  TIP3      2918            0.0000000000
     17330      2982  TIP3      H2             17.5483347613       -6.3564381225       67.7672344481  TIP3      2918            0.0000000000
     17331      2983  TIP3      OH2            18.7809602356       -7.2285292803       66.7831657088  TIP3      2919            0.0000000000
     17332      2983  TIP3      H1             18.6319240707       -8.1605427190       67.0440896081  TIP3      2919            0.0000000000
     17333      2983  TIP3      H2             19.6389256882       -7.0689876835       67.2205723273  TIP3      2919            0.0000000000
     17334      2984  TIP3      OH2            21.3975412404       -6.7651399543       67.6658575614  TIP3      2920            0.0000000000
     17335      2984  TIP3      H1             21.4991167467       -7.7078752927       67.4491836953  TIP3      2920            0.0000000000
     17336      2984  TIP3      H2             21.3434765827       -6.7729359111       68.6295547581  TIP3      2920            0.0000000000
     17337      2985  TIP3      OH2            17.3470733026      -22.4984409998       64.2874361537  TIP3      2921            0.0000000000
     17338      2985  TIP3      H1             16.3911176197      -22.6307947720       64.1897152456  TIP3      2921            0.0000000000
     17339      2985  TIP3      H2             17.5743818958      -23.3188705086       64.7222243583  TIP3      2921            0.0000000000
     17340      2986  TIP3      OH2            16.0490806620      -22.3039026543       60.9509385592  TIP3      2922            0.0000000000
     17341      2986  TIP3      H1             16.2818879357      -21.8520365215       60.1275401968  TIP3      2922            0.0000000000
     17342      2986  TIP3      H2             15.1462371276      -21.9990932789       61.1162730502  TIP3      2922            0.0000000000
     17343      2987  TIP3      OH2            21.6770722482      -22.4166948780       64.3090848039  TIP3      2923            0.0000000000
     17344      2987  TIP3      H1             22.5661275126      -22.0554378785       64.4449040199  TIP3      2923            0.0000000000
     17345      2987  TIP3      H2             21.5802164018      -22.8933477168       65.1522618670  TIP3      2923            0.0000000000
     17346      2988  TIP3      OH2            15.8406069005       -6.7869833189       61.4593449723  TIP3      2924            0.0000000000
     17347      2988  TIP3      H1             15.1933140630       -6.8209762035       60.7301801280  TIP3      2924            0.0000000000
     17348      2988  TIP3      H2             15.8477579587       -5.8278933331       61.5883530917  TIP3      2924            0.0000000000
     17349      2989  TIP3      OH2            17.7645782486      -20.7941415069       58.8346841173  TIP3      2925            0.0000000000
     17350      2989  TIP3      H1             18.3468572697      -21.3674468937       58.3203847914  TIP3      2925            0.0000000000
     17351      2989  TIP3      H2             18.3963903015      -20.4609415768       59.5087625579  TIP3      2925            0.0000000000
     17352      2990  TIP3      OH2            22.3943251159      -20.4327844492       60.9774249669  TIP3      2926            0.0000000000
     17353      2990  TIP3      H1             22.7658542525      -21.1190592119       61.5500227752  TIP3      2926            0.0000000000
     17354      2990  TIP3      H2             22.7160008561      -19.6500945207       61.4425855319  TIP3      2926            0.0000000000
     17355      2991  TIP3      OH2            17.6358780854       -5.7978852388       58.3559433006  TIP3      2927            0.0000000000
     17356      2991  TIP3      H1             17.3560367476       -5.5493648643       59.2474792745  TIP3      2927            0.0000000000
     17357      2991  TIP3      H2             18.4261703820       -6.3519257732       58.5207694656  TIP3      2927            0.0000000000
     17358      2992  TIP3      OH2           -11.4262742975        5.5311404343       64.4925431826  TIP3      2928            0.0000000000
     17359      2992  TIP3      H1            -11.4798487676        6.5115168165       64.5305495566  TIP3      2928            0.0000000000
     17360      2992  TIP3      H2            -12.1805236801        5.3020361878       63.9248748496  TIP3      2928            0.0000000000
     17361      2993  TIP3      OH2           -12.5562223111        4.7301071601       68.0941991642  TIP3      2929            0.0000000000
     17362      2993  TIP3      H1            -12.5931605842        4.0834417629       68.8163393446  TIP3      2929            0.0000000000
     17363      2993  TIP3      H2            -12.9188113430        4.2369948450       67.3384577798  TIP3      2929            0.0000000000
     17364      2994  TIP3      OH2           -20.2597955272        4.4981110702       69.6765314748  TIP3      2930            0.0000000000
     17365      2994  TIP3      H1            -20.0966718010        3.7389167847       70.2718230547  TIP3      2930            0.0000000000
     17366      2994  TIP3      H2            -19.4302973146        4.9920443827       69.7605736402  TIP3      2930            0.0000000000
     17367      2995  TIP3      OH2            -8.9495197039        7.7159818615       66.3233761413  TIP3      2931            0.0000000000
     17368      2995  TIP3      H1             -9.3204573145        6.9941375825       66.8371746338  TIP3      2931            0.0000000000
     17369      2995  TIP3      H2             -8.8921096683        8.4215148162       66.9963182094  TIP3      2931            0.0000000000
     17370      2996  TIP3      OH2           -19.3873379523        8.9231122877       68.0026070527  TIP3      2932            0.0000000000
     17371      2996  TIP3      H1            -19.6378137949        8.0095374871       67.7645132832  TIP3      2932            0.0000000000
     17372      2996  TIP3      H2            -18.4396844327        8.7641978047       68.1431344333  TIP3      2932            0.0000000000
     17373      2997  TIP3      OH2           -22.6115847956        2.4818376159       63.4549901276  TIP3      2933            0.0000000000
     17374      2997  TIP3      H1            -23.0402259537        3.3434877231       63.5503712498  TIP3      2933            0.0000000000
     17375      2997  TIP3      H2            -23.2914832360        1.8958022613       63.1449662268  TIP3      2933            0.0000000000
     17376      2998  TIP3      OH2           -21.9078840966        4.6577934412       65.7678656399  TIP3      2934            0.0000000000
     17377      2998  TIP3      H1            -21.6581508546        3.7979002207       66.1584409347  TIP3      2934            0.0000000000
     17378      2998  TIP3      H2            -21.2466371774        4.7981532549       65.0771379056  TIP3      2934            0.0000000000
     17379      2999  TIP3      OH2           -11.8159037225       12.8750326440       66.5835567211  TIP3      2935            0.0000000000
     17380      2999  TIP3      H1            -11.1567071139       12.2158916766       66.2609038724  TIP3      2935            0.0000000000
     17381      2999  TIP3      H2            -12.0082676173       12.4990520752       67.4507278562  TIP3      2935            0.0000000000
     17382      3000  TIP3      OH2           -14.2310453177        7.1760922266       68.5847404393  TIP3      2936            0.0000000000
     17383      3000  TIP3      H1            -13.9141888769        6.5904337483       67.8773961940  TIP3      2936            0.0000000000
     17384      3000  TIP3      H2            -13.3826528078        7.3634455675       69.0155089380  TIP3      2936            0.0000000000
     17385      3001  TIP3      OH2            -5.6185020094       -1.1626478561       69.2286648997  TIP3      2937            0.0000000000
     17386      3001  TIP3      H1             -5.4386631510       -0.5912974515       70.0009331888  TIP3      2937            0.0000000000
     17387      3001  TIP3      H2             -5.0532444074       -0.7408724161       68.5697428108  TIP3      2937            0.0000000000
     17388      3002  TIP3      OH2           -11.1030988957        1.6266336344       68.8494635031  TIP3      2938            0.0000000000
     17389      3002  TIP3      H1            -10.8931375690        0.6812848766       68.9060166562  TIP3      2938            0.0000000000
     17390      3002  TIP3      H2            -11.1594897239        1.7428688763       67.8857394426  TIP3      2938            0.0000000000
     17391      3003  TIP3      OH2           -17.9686718321       -0.2705832930       66.0342488866  TIP3      2939            0.0000000000
     17392      3003  TIP3      H1            -17.8255895215        0.5455300205       65.5185351025  TIP3      2939            0.0000000000
     17393      3003  TIP3      H2            -18.3213127126       -0.8628054455       65.3388338322  TIP3      2939            0.0000000000
     17394      3004  TIP3      OH2           -10.2167678357       -0.2141397802       64.4046117818  TIP3      2940            0.0000000000
     17395      3004  TIP3      H1             -9.5810254968       -0.5262979471       65.0858659038  TIP3      2940            0.0000000000
     17396      3004  TIP3      H2             -9.6480292793        0.3944535366       63.9101280645  TIP3      2940            0.0000000000
     17397      3005  TIP3      OH2           -21.1833723031        2.1747339883       66.6907784333  TIP3      2941            0.0000000000
     17398      3005  TIP3      H1            -20.6148509377        1.5815772344       67.2053286779  TIP3      2941            0.0000000000
     17399      3005  TIP3      H2            -21.1439814835        1.7573712121       65.8146695012  TIP3      2941            0.0000000000
     17400      3006  TIP3      OH2           -16.1908065999        3.6902758913       66.1044725922  TIP3      2942            0.0000000000
     17401      3006  TIP3      H1            -15.4974196645        3.1128943661       66.4676644483  TIP3      2942            0.0000000000
     17402      3006  TIP3      H2            -16.6720181966        3.0495446237       65.5451202820  TIP3      2942            0.0000000000
     17403      3007  TIP3      OH2            -5.0508014930        0.2863557934       71.5117121228  TIP3      2943            0.0000000000
     17404      3007  TIP3      H1             -5.7453626093        0.9590390869       71.3068322358  TIP3      2943            0.0000000000
     17405      3007  TIP3      H2             -5.2479828110        0.1578834640       72.4460384596  TIP3      2943            0.0000000000
     17406      3008  TIP3      OH2           -19.0277948513       -1.3487888002       70.0704405899  TIP3      2944            0.0000000000
     17407      3008  TIP3      H1            -19.2972773176       -0.8099617120       69.3007220834  TIP3      2944            0.0000000000
     17408      3008  TIP3      H2            -19.7615464793       -1.1550323404       70.7027640708  TIP3      2944            0.0000000000
     17409      3009  TIP3      OH2           -11.7749334875        8.0970220119       63.6126621611  TIP3      2945            0.0000000000
     17410      3009  TIP3      H1            -11.9949942851        7.8464905687       62.7026183212  TIP3      2945            0.0000000000
     17411      3009  TIP3      H2            -12.0655373040        9.0346315151       63.6621235518  TIP3      2945            0.0000000000
     17412      3010  TIP3      OH2           -16.5185958248        6.3270608213       70.3733333223  TIP3      2946            0.0000000000
     17413      3010  TIP3      H1            -17.2856830809        6.9400176926       70.4005310092  TIP3      2946            0.0000000000
     17414      3010  TIP3      H2            -15.8525502297        6.9276171152       70.0032549002  TIP3      2946            0.0000000000
     17415      3011  TIP3      OH2            -8.3629407864       -0.8519701392       66.3923181482  TIP3      2947            0.0000000000
     17416      3011  TIP3      H1             -8.6123862201       -1.5974119223       66.9521607288  TIP3      2947            0.0000000000
     17417      3011  TIP3      H2             -7.7117957450       -0.4131134214       66.9699504557  TIP3      2947            0.0000000000
     17418      3012  TIP3      OH2           -19.4627327326        0.4858471372       68.0900129991  TIP3      2948            0.0000000000
     17419      3012  TIP3      H1            -18.8359313660        1.1769609927       68.3859460362  TIP3      2948            0.0000000000
     17420      3012  TIP3      H2            -18.9516413201        0.1008903629       67.3273762703  TIP3      2948            0.0000000000
     17421      3013  TIP3      OH2           -18.0927802206        8.3624377102       70.6860268783  TIP3      2949            0.0000000000
     17422      3013  TIP3      H1            -18.0736259260        9.3320246116       70.8050652167  TIP3      2949            0.0000000000
     17423      3013  TIP3      H2            -18.8194991705        8.1865894496       71.3388444231  TIP3      2949            0.0000000000
     17424      3014  TIP3      OH2           -21.5489418651        8.1802178752       61.8013943312  TIP3      2950            0.0000000000
     17425      3014  TIP3      H1            -22.3047020989        7.9498364408       61.2173734501  TIP3      2950            0.0000000000
     17426      3014  TIP3      H2            -21.8888312663        8.6950325499       62.5509056468  TIP3      2950            0.0000000000
     17427      3015  TIP3      OH2            -8.4251164402        9.5391621954       68.5981237059  TIP3      2951            0.0000000000
     17428      3015  TIP3      H1             -9.3745975406        9.7142786697       68.7709275757  TIP3      2951            0.0000000000
     17429      3015  TIP3      H2             -8.1080146201       10.4593326428       68.4711114996  TIP3      2951            0.0000000000
     17430      3016  TIP3      OH2            -8.1196570337       -2.1656734151       69.9790380626  TIP3      2952            0.0000000000
     17431      3016  TIP3      H1             -8.7859025502       -1.4670702960       69.9562091732  TIP3      2952            0.0000000000
     17432      3016  TIP3      H2             -7.3217168172       -1.7100796107       69.6442275448  TIP3      2952            0.0000000000
     17433      3017  TIP3      OH2           -15.1270297127       -4.0302992005       67.4864839713  TIP3      2953            0.0000000000
     17434      3017  TIP3      H1            -15.2677130842       -4.9951653621       67.4786709195  TIP3      2953            0.0000000000
     17435      3017  TIP3      H2            -15.9969994787       -3.7241750860       67.8259031103  TIP3      2953            0.0000000000
     17436      3018  TIP3      OH2           -10.1286553123       11.3538999522       65.2483756728  TIP3      2954            0.0000000000
     17437      3018  TIP3      H1             -9.7214692047       10.6182508236       64.7421180191  TIP3      2954            0.0000000000
     17438      3018  TIP3      H2             -9.6322579900       12.1189139279       64.8805197294  TIP3      2954            0.0000000000
     17439      3019  TIP3      OH2            -8.8980616082        9.2667337935       63.7853683761  TIP3      2955            0.0000000000
     17440      3019  TIP3      H1             -9.2138821239        8.5826404473       63.1737086142  TIP3      2955            0.0000000000
     17441      3019  TIP3      H2             -8.8756679051        8.7677217434       64.6215278053  TIP3      2955            0.0000000000
     17442      3020  TIP3      OH2            -7.2817945136        7.8863981675       72.2347205154  TIP3      2956            0.0000000000
     17443      3020  TIP3      H1             -7.2464593744        7.2968685173       71.4610852030  TIP3      2956            0.0000000000
     17444      3020  TIP3      H2             -7.0969391639        8.7664177773       71.8624148625  TIP3      2956            0.0000000000
     17445      3021  TIP3      OH2           -12.7980806944        4.7384054009       62.0445922221  TIP3      2957            0.0000000000
     17446      3021  TIP3      H1            -13.4773613982        5.3344417384       61.6747918791  TIP3      2957            0.0000000000
     17447      3021  TIP3      H2            -12.0765575656        4.8449827385       61.3975289320  TIP3      2957            0.0000000000
     17448      3022  TIP3      OH2           -12.6943329980        3.3642065163       59.0300147630  TIP3      2958            0.0000000000
     17449      3022  TIP3      H1            -11.9915940027        3.3604408064       59.7021783364  TIP3      2958            0.0000000000
     17450      3022  TIP3      H2            -12.4079762407        2.6057758892       58.5055204590  TIP3      2958            0.0000000000
     17451      3023  TIP3      OH2            -5.4145481687        4.2132126665       70.2971386823  TIP3      2959            0.0000000000
     17452      3023  TIP3      H1             -6.0511399548        4.9480308241       70.2733621204  TIP3      2959            0.0000000000
     17453      3023  TIP3      H2             -4.8741517748        4.4242630297       69.5145711136  TIP3      2959            0.0000000000
     17454      3024  TIP3      OH2            -9.3194591591        4.9282308816       62.9543675178  TIP3      2960            0.0000000000
     17455      3024  TIP3      H1            -10.0626207086        5.1942508501       63.5477803690  TIP3      2960            0.0000000000
     17456      3024  TIP3      H2             -8.8359080800        4.2879631979       63.5035272160  TIP3      2960            0.0000000000
     17457      3025  TIP3      OH2            -9.2427225886        3.7298711256       71.3888609678  TIP3      2961            0.0000000000
     17458      3025  TIP3      H1             -9.3453820695        3.6367804326       72.3673780236  TIP3      2961            0.0000000000
     17459      3025  TIP3      H2            -10.1223583530        3.3411856354       71.2024081879  TIP3      2961            0.0000000000
     17460      3026  TIP3      OH2           -17.7144814305        5.6163086584       64.8857016547  TIP3      2962            0.0000000000
     17461      3026  TIP3      H1            -18.0459609202        5.2334287606       64.0348193460  TIP3      2962            0.0000000000
     17462      3026  TIP3      H2            -17.1035225327        4.9176924227       65.2096708790  TIP3      2962            0.0000000000
     17463      3027  TIP3      OH2           -16.4048524574        9.0000731994       67.5528754629  TIP3      2963            0.0000000000
     17464      3027  TIP3      H1            -16.4063273055        8.5073630097       66.7231885057  TIP3      2963            0.0000000000
     17465      3027  TIP3      H2            -15.6327685031        8.6309031143       68.0128342775  TIP3      2963            0.0000000000
     17466      3028  TIP3      OH2           -17.4127302504        4.3107198573       68.5793165873  TIP3      2964            0.0000000000
     17467      3028  TIP3      H1            -16.9027209925        4.4294494580       67.7490309140  TIP3      2964            0.0000000000
     17468      3028  TIP3      H2            -17.0297340803        5.0132571233       69.1448782850  TIP3      2964            0.0000000000
     17469      3029  TIP3      OH2           -10.9940761664        9.9494535178       69.2704797292  TIP3      2965            0.0000000000
     17470      3029  TIP3      H1            -11.2293528436       10.5998961400       69.9465369631  TIP3      2965            0.0000000000
     17471      3029  TIP3      H2            -11.2480421454        9.0896959038       69.6841380859  TIP3      2965            0.0000000000
     17472      3030  TIP3      OH2           -10.4497934828        4.1935470599       60.6019606462  TIP3      2966            0.0000000000
     17473      3030  TIP3      H1             -9.9068758313        4.3579668202       61.4122314541  TIP3      2966            0.0000000000
     17474      3030  TIP3      H2             -9.9723359494        4.6788784695       59.8866397001  TIP3      2966            0.0000000000
     17475      3031  TIP3      OH2           -12.7562700026       10.8875757855       64.0879762928  TIP3      2967            0.0000000000
     17476      3031  TIP3      H1            -12.3406051478       11.1956148786       64.9017987549  TIP3      2967            0.0000000000
     17477      3031  TIP3      H2            -13.3015668420       11.6412581326       63.8299069395  TIP3      2967            0.0000000000
     17478      3032  TIP3      OH2            -6.7176039685       -4.1010241872       60.5726128753  TIP3      2968            0.0000000000
     17479      3032  TIP3      H1             -7.6792439856       -4.0172763280       60.7617308043  TIP3      2968            0.0000000000
     17480      3032  TIP3      H2             -6.5358375759       -3.2717707302       60.0958024103  TIP3      2968            0.0000000000
     17481      3033  TIP3      OH2           -18.7297721733        4.6369191802       62.5228312414  TIP3      2969            0.0000000000
     17482      3033  TIP3      H1            -19.0425416199        5.4108870240       62.0106779046  TIP3      2969            0.0000000000
     17483      3033  TIP3      H2            -19.3603413197        3.9557387840       62.2799572850  TIP3      2969            0.0000000000
     17484      3034  TIP3      OH2            -5.6235523642       10.2504547395       58.8818965056  TIP3      2970            0.0000000000
     17485      3034  TIP3      H1             -5.4298460296       11.1880118815       59.0551060043  TIP3      2970            0.0000000000
     17486      3034  TIP3      H2             -4.7130512600        9.9023636927       58.9138290641  TIP3      2970            0.0000000000
     17487      3035  TIP3      OH2           -22.6381683957        7.1162141480       71.3445173435  TIP3      2971            0.0000000000
     17488      3035  TIP3      H1            -22.9982665921        7.0033225674       70.4585453586  TIP3      2971            0.0000000000
     17489      3035  TIP3      H2            -22.6069906766        6.2066249200       71.6423649947  TIP3      2971            0.0000000000
     17490      3036  TIP3      OH2           -22.8757619355        9.8026392324       68.1609456968  TIP3      2972            0.0000000000
     17491      3036  TIP3      H1            -21.9168842023        9.6627514634       68.1548368222  TIP3      2972            0.0000000000
     17492      3036  TIP3      H2            -22.9862201757       10.5690779071       68.7412774792  TIP3      2972            0.0000000000
     17493      3037  TIP3      OH2           -13.2613770220       13.7810004231       62.4910923099  TIP3      2973            0.0000000000
     17494      3037  TIP3      H1            -13.3887765965       13.7276721507       61.5274050862  TIP3      2973            0.0000000000
     17495      3037  TIP3      H2            -13.2738082116       14.7383015005       62.6723414059  TIP3      2973            0.0000000000
     17496      3038  TIP3      OH2           -19.6287813854       12.6374094642       64.3170894504  TIP3      2974            0.0000000000
     17497      3038  TIP3      H1            -19.4763117520       12.2701859993       65.2160405528  TIP3      2974            0.0000000000
     17498      3038  TIP3      H2            -20.4926861563       12.2573427417       64.1257999579  TIP3      2974            0.0000000000
     17499      3039  TIP3      OH2           -10.2095541714       13.0201031912       59.4814585350  TIP3      2975            0.0000000000
     17500      3039  TIP3      H1             -9.7368502307       12.2632666655       59.0572977199  TIP3      2975            0.0000000000
     17501      3039  TIP3      H2            -10.1717460889       12.7670964740       60.4283023165  TIP3      2975            0.0000000000
     17502      3040  TIP3      OH2           -10.5186482160       12.9512538132       62.2706832459  TIP3      2976            0.0000000000
     17503      3040  TIP3      H1            -11.4842113785       13.0259412871       62.4130950179  TIP3      2976            0.0000000000
     17504      3040  TIP3      H2            -10.3115874075       12.1948277568       62.8397291110  TIP3      2976            0.0000000000
     17505      3041  TIP3      OH2           -20.2656102226        8.1845358166      -72.9015050785  TIP3      2977            0.0000000000
     17506      3041  TIP3      H1            -20.2037519914        8.1572960632      -71.9300445272  TIP3      2977            0.0000000000
     17507      3041  TIP3      H2            -21.2032644446        7.9883192354      -73.0666338948  TIP3      2977            0.0000000000
     17508      3042  TIP3      OH2           -17.6873013729       -3.1023486863       68.2177843936  TIP3      2978            0.0000000000
     17509      3042  TIP3      H1            -18.5991523236       -3.2595581181       67.8724973091  TIP3      2978            0.0000000000
     17510      3042  TIP3      H2            -17.8478651669       -2.3187130818       68.7693621323  TIP3      2978            0.0000000000
     17511      3043  TIP3      OH2           -13.1077961137       -3.4457586495       71.7500403826  TIP3      2979            0.0000000000
     17512      3043  TIP3      H1            -12.7288836264       -3.9213355764       72.4977129227  TIP3      2979            0.0000000000
     17513      3043  TIP3      H2            -14.0774482998       -3.6250583607       71.8166704341  TIP3      2979            0.0000000000
     17514      3044  TIP3      OH2            -9.0093101999        5.2268400549       58.5193585070  TIP3      2980            0.0000000000
     17515      3044  TIP3      H1             -9.0790147417        5.0335608985       57.5586416534  TIP3      2980            0.0000000000
     17516      3044  TIP3      H2             -8.1491112914        5.6706905503       58.5067534073  TIP3      2980            0.0000000000
     17517      3045  TIP3      OH2           -13.4338678069       -0.8542448817       58.9445840531  TIP3      2981            0.0000000000
     17518      3045  TIP3      H1            -13.7549142435       -0.9388101959       59.8587719206  TIP3      2981            0.0000000000
     17519      3045  TIP3      H2            -13.7248661266       -1.7328165488       58.6293412543  TIP3      2981            0.0000000000
     17520      3046  TIP3      OH2           -17.6035030820        1.8466233686       69.5811924076  TIP3      2982            0.0000000000
     17521      3046  TIP3      H1            -18.3743263227        1.8518301947       70.1733231506  TIP3      2982            0.0000000000
     17522      3046  TIP3      H2            -17.6227525936        2.7448591999       69.1800556750  TIP3      2982            0.0000000000
     17523      3047  TIP3      OH2           -17.6174179144        1.9144062272       64.4173408674  TIP3      2983            0.0000000000
     17524      3047  TIP3      H1            -18.5797991136        1.7290708680       64.2908074175  TIP3      2983            0.0000000000
     17525      3047  TIP3      H2            -17.2985884301        1.6487466404       63.5308022618  TIP3      2983            0.0000000000
     17526      3048  TIP3      OH2           -12.1141931178        2.4657554087       63.1857069611  TIP3      2984            0.0000000000
     17527      3048  TIP3      H1            -12.5026078595        3.2886865810       62.8068440786  TIP3      2984            0.0000000000
     17528      3048  TIP3      H2            -11.4427946055        2.2702722888       62.5089929673  TIP3      2984            0.0000000000
     17529      3049  TIP3      OH2           -11.0744127594        1.9725747376       66.0177966450  TIP3      2985            0.0000000000
     17530      3049  TIP3      H1            -11.3948879097        2.5338170824       65.2934426598  TIP3      2985            0.0000000000
     17531      3049  TIP3      H2            -11.0092534518        1.1168435342       65.5594160629  TIP3      2985            0.0000000000
     17532      3050  TIP3      OH2           -19.9284955362        2.0798263976       71.2066316652  TIP3      2986            0.0000000000
     17533      3050  TIP3      H1            -19.9383459788        2.4204707948       72.1194134615  TIP3      2986            0.0000000000
     17534      3050  TIP3      H2            -20.3882202446        1.2326224245       71.3801116581  TIP3      2986            0.0000000000
     17535      3051  TIP3      OH2           -16.6476948250       -0.5118844300       58.0674698773  TIP3      2987            0.0000000000
     17536      3051  TIP3      H1            -17.1076159821       -0.9324895464       58.8247793452  TIP3      2987            0.0000000000
     17537      3051  TIP3      H2            -17.3525129001       -0.0643125069       57.5843965478  TIP3      2987            0.0000000000
     17538      3052  TIP3      OH2           -22.1252717115       -0.7142187287       64.9662983239  TIP3      2988            0.0000000000
     17539      3052  TIP3      H1            -22.4124433378       -0.9262402344       65.8684745540  TIP3      2988            0.0000000000
     17540      3052  TIP3      H2            -22.7289342158       -1.2535771538       64.4333893892  TIP3      2988            0.0000000000
     17541      3053  TIP3      OH2           -22.0206580858        0.0239435551       60.6781593110  TIP3      2989            0.0000000000
     17542      3053  TIP3      H1            -21.4795011322        0.4841965425       60.0000050643  TIP3      2989            0.0000000000
     17543      3053  TIP3      H2            -22.7430929027        0.6308297543       60.7965240530  TIP3      2989            0.0000000000
     17544      3054  TIP3      OH2           -11.9547302152        3.5513821742       70.5736322581  TIP3      2990            0.0000000000
     17545      3054  TIP3      H1            -11.5604206371        2.8481343967       70.0168934755  TIP3      2990            0.0000000000
     17546      3054  TIP3      H2            -12.3611195506        3.0014884174       71.2662295903  TIP3      2990            0.0000000000
     17547      3055  TIP3      OH2           -15.0718183102       -0.4521584248       65.4077911516  TIP3      2991            0.0000000000
     17548      3055  TIP3      H1            -16.0071087485       -0.4816390110       65.6812339511  TIP3      2991            0.0000000000
     17549      3055  TIP3      H2            -14.6088266696       -0.6921717623       66.2259531098  TIP3      2991            0.0000000000
     17550      3056  TIP3      OH2           -20.1435286239        1.1196134899       64.1933877957  TIP3      2992            0.0000000000
     17551      3056  TIP3      H1            -21.0899141336        1.2082684369       63.9519184518  TIP3      2992            0.0000000000
     17552      3056  TIP3      H2            -19.9984325980        0.1934369525       63.9167334017  TIP3      2992            0.0000000000
     17553      3057  TIP3      OH2           -16.6522750542        1.1256931851       61.9194371621  TIP3      2993            0.0000000000
     17554      3057  TIP3      H1            -15.6908120980        1.2237933949       62.0509905173  TIP3      2993            0.0000000000
     17555      3057  TIP3      H2            -16.8892282214        1.8049992320       61.2612622515  TIP3      2993            0.0000000000
     17556      3058  TIP3      OH2           -10.7027106588       -1.2664455294       68.6048239376  TIP3      2994            0.0000000000
     17557      3058  TIP3      H1            -11.3489591115       -1.2074101100       69.3367609114  TIP3      2994            0.0000000000
     17558      3058  TIP3      H2            -11.2292570685       -1.5419305800       67.8448774061  TIP3      2994            0.0000000000
     17559      3059  TIP3      OH2           -17.9379042930        2.3009188298       59.4755977730  TIP3      2995            0.0000000000
     17560      3059  TIP3      H1            -18.4400465142        1.8901963703       58.7551536492  TIP3      2995            0.0000000000
     17561      3059  TIP3      H2            -17.1071952532        2.5059475790       59.0169481972  TIP3      2995            0.0000000000
     17562      3060  TIP3      OH2           -13.8163556415        2.2717638111       67.2970024289  TIP3      2996            0.0000000000
     17563      3060  TIP3      H1            -13.2121641012        1.7529308904       66.7587381373  TIP3      2996            0.0000000000
     17564      3060  TIP3      H2            -13.9523392194        1.7061227839       68.0684256339  TIP3      2996            0.0000000000
     17565      3061  TIP3      OH2           -18.8265963288       -1.5807658853       63.7160889931  TIP3      2997            0.0000000000
     17566      3061  TIP3      H1            -19.1476047272       -2.4977079140       63.7623900276  TIP3      2997            0.0000000000
     17567      3061  TIP3      H2            -18.0180164661       -1.6880656722       63.1969596031  TIP3      2997            0.0000000000
     17568      3062  TIP3      OH2           -15.1602586704        0.5525242032       69.7320108394  TIP3      2998            0.0000000000
     17569      3062  TIP3      H1            -15.9546890525        1.1229580596       69.7610586390  TIP3      2998            0.0000000000
     17570      3062  TIP3      H2            -14.5984318204        0.9369145672       70.4328265696  TIP3      2998            0.0000000000
     17571      3063  TIP3      OH2           -14.5869493081        6.7999071312       61.4260880513  TIP3      2999            0.0000000000
     17572      3063  TIP3      H1            -15.3935340543        6.3554458358       61.0770865073  TIP3      2999            0.0000000000
     17573      3063  TIP3      H2            -14.8412436932        6.9715742791       62.3561630570  TIP3      2999            0.0000000000
     17574      3064  TIP3      OH2            -7.3508529375        6.0967469979       70.2551864662  TIP3      3000            0.0000000000
     17575      3064  TIP3      H1             -6.8083734983        6.5632655846       69.5774118009  TIP3      3000            0.0000000000
     17576      3064  TIP3      H2             -8.1945717359        5.9723612094       69.7639703594  TIP3      3000            0.0000000000
     17577      3065  TIP3      OH2           -10.7893580311       -0.3975406102       59.6223073928  TIP3      3001            0.0000000000
     17578      3065  TIP3      H1            -11.7306395706       -0.2160380024       59.4493543449  TIP3      3001            0.0000000000
     17579      3065  TIP3      H2            -10.4226226894        0.4544007653       59.9446450715  TIP3      3001            0.0000000000
     17580      3066  TIP3      OH2           -10.0318925849        1.5826095509       61.1697592933  TIP3      3002            0.0000000000
     17581      3066  TIP3      H1             -9.1745032001        1.4428633482       61.6242622725  TIP3      3002            0.0000000000
     17582      3066  TIP3      H2             -9.8953851634        2.4118563974       60.6807688898  TIP3      3002            0.0000000000
     17583      3067  TIP3      OH2           -19.4602186232        6.2540696771       67.2380088643  TIP3      3003            0.0000000000
     17584      3067  TIP3      H1            -18.8593095578        6.1437978489       66.4786103836  TIP3      3003            0.0000000000
     17585      3067  TIP3      H2            -19.4129282628        5.3925562016       67.6776607675  TIP3      3003            0.0000000000
     17586      3068  TIP3      OH2           -12.5083607414        8.2738184575       60.4493052439  TIP3      3004            0.0000000000
     17587      3068  TIP3      H1            -12.8533721168        9.1273303808       60.7922115446  TIP3      3004            0.0000000000
     17588      3068  TIP3      H2            -13.2318598378        7.6550818913       60.6841180223  TIP3      3004            0.0000000000
     17589      3069  TIP3      OH2            -5.1229653343        1.6691660009       60.9885666707  TIP3      3005            0.0000000000
     17590      3069  TIP3      H1             -5.6916102628        1.4182241112       60.2346430050  TIP3      3005            0.0000000000
     17591      3069  TIP3      H2             -5.0451340907        2.6274551738       60.7764167400  TIP3      3005            0.0000000000
     17592      3070  TIP3      OH2            -6.8919662340       10.5098695846       61.3602053399  TIP3      3006            0.0000000000
     17593      3070  TIP3      H1             -7.1948548320        9.6731844769       61.7334977693  TIP3      3006            0.0000000000
     17594      3070  TIP3      H2             -6.4995706694       10.2694573366       60.5045734693  TIP3      3006            0.0000000000
     17595      3071  TIP3      OH2            -9.6193932908        5.3839077903       68.5113020110  TIP3      3007            0.0000000000
     17596      3071  TIP3      H1            -10.5520949563        5.1479083424       68.3866262912  TIP3      3007            0.0000000000
     17597      3071  TIP3      H2             -9.1864479706        4.6211924857       68.0786954209  TIP3      3007            0.0000000000
     17598      3072  TIP3      OH2           -17.1022062188        9.6886827473       64.6275251935  TIP3      3008            0.0000000000
     17599      3072  TIP3      H1            -16.6020762278       10.4938587548       64.4034836289  TIP3      3008            0.0000000000
     17600      3072  TIP3      H2            -17.9687886461        9.8996836529       64.2544040682  TIP3      3008            0.0000000000
     17601      3073  TIP3      OH2           -21.4921731847        4.5111492801       59.1782874104  TIP3      3009            0.0000000000
     17602      3073  TIP3      H1            -20.7784912945        5.0962927387       59.5164018505  TIP3      3009            0.0000000000
     17603      3073  TIP3      H2            -22.2720334743        4.9715963785       59.5068865662  TIP3      3009            0.0000000000
     17604      3074  TIP3      OH2           -15.7127555733        7.3476137884       64.0659124462  TIP3      3010            0.0000000000
     17605      3074  TIP3      H1            -16.0383666381        8.2590505991       64.1964274916  TIP3      3010            0.0000000000
     17606      3074  TIP3      H2            -16.3985796597        6.8262663756       64.5294146710  TIP3      3010            0.0000000000
     17607      3075  TIP3      OH2           -15.2114651775       11.5297620586       70.4344981713  TIP3      3011            0.0000000000
     17608      3075  TIP3      H1            -14.7352719614       12.3390819028       70.2152478137  TIP3      3011            0.0000000000
     17609      3075  TIP3      H2            -14.6161224145       11.2185052732       71.1346712641  TIP3      3011            0.0000000000
     17610      3076  TIP3      OH2           -17.0063118712       12.3081758117       63.6165389599  TIP3      3012            0.0000000000
     17611      3076  TIP3      H1            -17.9701973456       12.4451111326       63.7637271586  TIP3      3012            0.0000000000
     17612      3076  TIP3      H2            -16.6364597487       13.1520018916       63.9417110797  TIP3      3012            0.0000000000
     17613      3077  TIP3      OH2           -11.7562193347        7.5104574911       70.1464085386  TIP3      3013            0.0000000000
     17614      3077  TIP3      H1            -12.0030253664        7.3257251463       71.0548782838  TIP3      3013            0.0000000000
     17615      3077  TIP3      H2            -11.0702224855        6.8496573972       69.9605986691  TIP3      3013            0.0000000000
     17616      3078  TIP3      OH2            -9.3421128921        8.6287280162       59.2315240059  TIP3      3014            0.0000000000
     17617      3078  TIP3      H1             -9.0570744017        8.1291238590       60.0253643752  TIP3      3014            0.0000000000
     17618      3078  TIP3      H2            -10.2905368984        8.4209603962       59.2847534322  TIP3      3014            0.0000000000
     17619      3079  TIP3      OH2            -4.9139492246       12.9471726432       59.4915334159  TIP3      3015            0.0000000000
     17620      3079  TIP3      H1             -4.2380682419       13.6163675664       59.2673831571  TIP3      3015            0.0000000000
     17621      3079  TIP3      H2             -5.6302700824       13.5532976050       59.7847850319  TIP3      3015            0.0000000000
     17622      3080  TIP3      OH2           -20.9398676846       -0.6461095593       71.8040960667  TIP3      3016            0.0000000000
     17623      3080  TIP3      H1            -21.8428518408       -0.3631004993       71.9626080065  TIP3      3016            0.0000000000
     17624      3080  TIP3      H2            -20.8463909368       -1.3893433915       72.4406446369  TIP3      3016            0.0000000000
     17625      3081  TIP3      OH2            -8.6065448066        7.2386081313       61.4849378927  TIP3      3017            0.0000000000
     17626      3081  TIP3      H1             -8.8438253811        6.4388603214       61.9986206644  TIP3      3017            0.0000000000
     17627      3081  TIP3      H2             -7.6455504186        7.2577159305       61.6345651067  TIP3      3017            0.0000000000
     17628      3082  TIP3      OH2           -21.1976663503       11.1349563038       70.4533253885  TIP3      3018            0.0000000000
     17629      3082  TIP3      H1            -20.8364165756       10.2369039281       70.4125548264  TIP3      3018            0.0000000000
     17630      3082  TIP3      H2            -20.8584841668       11.4618407862       71.3070277896  TIP3      3018            0.0000000000
     17631      3083  TIP3      OH2           -15.2190502306        9.6805677947       57.7502451441  TIP3      3019            0.0000000000
     17632      3083  TIP3      H1            -15.1585919818        8.9263033683       57.1410604368  TIP3      3019            0.0000000000
     17633      3083  TIP3      H2            -15.7185687387        9.2547779086       58.4804326092  TIP3      3019            0.0000000000
     17634      3084  TIP3      OH2           -16.5002918179        9.1879367479       60.2105842042  TIP3      3020            0.0000000000
     17635      3084  TIP3      H1            -16.1565128038        8.6763243778       60.9511388789  TIP3      3020            0.0000000000
     17636      3084  TIP3      H2            -16.4213370605       10.1149573189       60.5306623313  TIP3      3020            0.0000000000
     17637      3085  TIP3      OH2           -19.9464704130        6.4378415250       60.5969646353  TIP3      3021            0.0000000000
     17638      3085  TIP3      H1            -20.6312329720        6.8683319333       61.1514882389  TIP3      3021            0.0000000000
     17639      3085  TIP3      H2            -19.3900926202        7.2040933569       60.3644529577  TIP3      3021            0.0000000000
     17640      3086  TIP3      OH2           -12.1003425461       -0.9372069206       71.0090309523  TIP3      3022            0.0000000000
     17641      3086  TIP3      H1            -11.4123021479       -0.8313876904       71.6729432347  TIP3      3022            0.0000000000
     17642      3086  TIP3      H2            -12.4839478752       -1.7977634463       71.2614761746  TIP3      3022            0.0000000000
     17643      3087  TIP3      OH2           -11.3859768845       -1.3204090033       62.1087786429  TIP3      3023            0.0000000000
     17644      3087  TIP3      H1            -11.1446866627       -0.8916026688       61.2642076953  TIP3      3023            0.0000000000
     17645      3087  TIP3      H2            -10.7938822065       -0.8663683246       62.7254471605  TIP3      3023            0.0000000000
     17646      3088  TIP3      OH2           -13.6708671476       10.8472571674       60.8638513703  TIP3      3024            0.0000000000
     17647      3088  TIP3      H1            -14.4923439027       11.3732918539       60.9524181401  TIP3      3024            0.0000000000
     17648      3088  TIP3      H2            -13.1247592182       11.4228125636       60.3107549125  TIP3      3024            0.0000000000
     17649      3089  TIP3      OH2           -14.1180901760        0.4194554122       62.9021016380  TIP3      3025            0.0000000000
     17650      3089  TIP3      H1            -13.3636901540        1.0383735999       62.9606652730  TIP3      3025            0.0000000000
     17651      3089  TIP3      H2            -14.4082569758        0.2993098271       63.8290504228  TIP3      3025            0.0000000000
     17652      3090  TIP3      OH2           -13.4140513469        1.5295797642       71.9405232333  TIP3      3026            0.0000000000
     17653      3090  TIP3      H1            -13.5822620609        1.9050555212       72.8240676750  TIP3      3026            0.0000000000
     17654      3090  TIP3      H2            -12.9812056360        0.6887573245       72.1570548708  TIP3      3026            0.0000000000
     17655      3091  TIP3      OH2           -13.2981451039       -2.5298986921       63.7402023384  TIP3      3027            0.0000000000
     17656      3091  TIP3      H1            -13.6258508069       -1.8905410185       64.3868769638  TIP3      3027            0.0000000000
     17657      3091  TIP3      H2            -12.5863521735       -1.9815529599       63.3238064444  TIP3      3027            0.0000000000
     17658      3092  TIP3      OH2           -16.2505124976       11.8619400367       60.9083007011  TIP3      3028            0.0000000000
     17659      3092  TIP3      H1            -16.1705393163       12.6675033956       60.3404875671  TIP3      3028            0.0000000000
     17660      3092  TIP3      H2            -16.5232682776       12.2491309367       61.7713011632  TIP3      3028            0.0000000000
     17661      3093  TIP3      OH2           -17.6082725993       -1.3904115584       60.4764666106  TIP3      3029            0.0000000000
     17662      3093  TIP3      H1            -17.6708283082       -0.5055006737       60.8874916356  TIP3      3029            0.0000000000
     17663      3093  TIP3      H2            -16.7037987675       -1.6464072178       60.7502747508  TIP3      3029            0.0000000000
     17664      3094  TIP3      OH2            -8.7813761469        3.1362508787       66.9238342523  TIP3      3030            0.0000000000
     17665      3094  TIP3      H1             -9.6047604776        2.6827700267       66.6623878899  TIP3      3030            0.0000000000
     17666      3094  TIP3      H2             -8.2686450371        2.4358218225       67.3822249298  TIP3      3030            0.0000000000
     17667      3095  TIP3      OH2           -19.3646719862        9.0773030753       59.4968889534  TIP3      3031            0.0000000000
     17668      3095  TIP3      H1            -18.6515389320        9.6389680200       59.8363382636  TIP3      3031            0.0000000000
     17669      3095  TIP3      H2            -18.8686810583        8.5475323420       58.8400121231  TIP3      3031            0.0000000000
     17670      3096  TIP3      OH2           -21.0911319146        1.7479012318       58.6411647516  TIP3      3032            0.0000000000
     17671      3096  TIP3      H1            -21.1050685847        2.6875648303       58.8958577246  TIP3      3032            0.0000000000
     17672      3096  TIP3      H2            -21.9682514033        1.5454752618       58.3132627318  TIP3      3032            0.0000000000
     17673      3097  TIP3      OH2            -7.7215441647       12.3532368344       68.5810679440  TIP3      3033            0.0000000000
     17674      3097  TIP3      H1             -7.8183495685       13.0621400822       67.9158527368  TIP3      3033            0.0000000000
     17675      3097  TIP3      H2             -6.7680803238       12.4499241651       68.7894175155  TIP3      3033            0.0000000000
     17676      3098  TIP3      OH2           -20.2046155765       -3.5353292765       67.4609143753  TIP3      3034            0.0000000000
     17677      3098  TIP3      H1            -20.3722220077       -3.4831190640       66.4902632296  TIP3      3034            0.0000000000
     17678      3098  TIP3      H2            -20.6614189512       -4.3771080094       67.6639705613  TIP3      3034            0.0000000000
     17679      3099  TIP3      OH2           -21.4016165701       10.3776652741       63.4766456306  TIP3      3035            0.0000000000
     17680      3099  TIP3      H1            -22.1011066242       11.0234500859       63.6143683214  TIP3      3035            0.0000000000
     17681      3099  TIP3      H2            -20.7783621110       10.8561814235       62.9181674869  TIP3      3035            0.0000000000
     17682      3100  TIP3      OH2           -13.2214681022       11.5250314458       57.8691555084  TIP3      3036            0.0000000000
     17683      3100  TIP3      H1            -13.9345646716       10.8661525850       58.0399050282  TIP3      3036            0.0000000000
     17684      3100  TIP3      H2            -12.5194609815       10.9152998591       57.5977030503  TIP3      3036            0.0000000000
     17685      3101  TIP3      OH2            -8.6838438703       11.2403764248       58.0322988824  TIP3      3037            0.0000000000
     17686      3101  TIP3      H1             -8.3977193823       10.4712341747       58.5523464715  TIP3      3037            0.0000000000
     17687      3101  TIP3      H2             -7.9164576175       11.4341949883       57.4762810952  TIP3      3037            0.0000000000
     17688      3102  TIP3      OH2           -17.8096725619        7.1953135247       57.8168972263  TIP3      3038            0.0000000000
     17689      3102  TIP3      H1            -17.6716772899        6.4560091276       58.4274062602  TIP3      3038            0.0000000000
     17690      3102  TIP3      H2            -17.0355833200        7.0815054101       57.2310506653  TIP3      3038            0.0000000000
     17691      3103  TIP3      OH2           -12.3641030219        8.3237734557       57.6300435467  TIP3      3039            0.0000000000
     17692      3103  TIP3      H1            -12.6363996615        8.3731028209       58.5607004263  TIP3      3039            0.0000000000
     17693      3103  TIP3      H2            -12.5393033087        7.3674219377       57.4605227760  TIP3      3039            0.0000000000
     17694      3104  TIP3      OH2           -16.5881603925        5.2188236674       60.3130130209  TIP3      3040            0.0000000000
     17695      3104  TIP3      H1            -17.1234844210        4.6660197145       60.9061149432  TIP3      3040            0.0000000000
     17696      3104  TIP3      H2            -16.2681137562        4.5614324429       59.6584919100  TIP3      3040            0.0000000000
     17697      3105  TIP3      OH2           -15.5530392826        3.4613820610       58.4805603419  TIP3      3041            0.0000000000
     17698      3105  TIP3      H1            -15.6811047647        3.3898082419       57.5144427589  TIP3      3041            0.0000000000
     17699      3105  TIP3      H2            -14.5736587293        3.4741189982       58.5623802745  TIP3      3041            0.0000000000
     17700      3106  TIP3      OH2            -6.2413941540        5.7489553351       57.8770722135  TIP3      3042            0.0000000000
     17701      3106  TIP3      H1             -6.3817894412        5.3928543374       56.9816342543  TIP3      3042            0.0000000000
     17702      3106  TIP3      H2             -6.1269013039        6.7151583876       57.7082016173  TIP3      3042            0.0000000000
     17703      3107  TIP3      OH2           -16.5426553753       -1.5000146308       70.8710843336  TIP3      3043            0.0000000000
     17704      3107  TIP3      H1            -16.0517805334       -0.7608251272       70.4448169837  TIP3      3043            0.0000000000
     17705      3107  TIP3      H2            -17.4810954360       -1.3037386057       70.6675919396  TIP3      3043            0.0000000000
     17706      3108  TIP3      OH2           -14.9666431900        4.2863436266       71.1475325627  TIP3      3044            0.0000000000
     17707      3108  TIP3      H1            -14.1100084959        4.1879218101       70.7139259366  TIP3      3044            0.0000000000
     17708      3108  TIP3      H2            -15.3131095738        5.1765710213       70.9661831849  TIP3      3044            0.0000000000
     17709      3109  TIP3      OH2           -15.7737262953       -3.8193526911       71.7344675056  TIP3      3045            0.0000000000
     17710      3109  TIP3      H1            -15.9349528509       -2.8887420689       71.4353259807  TIP3      3045            0.0000000000
     17711      3109  TIP3      H2            -16.4623376462       -4.2138741235       71.1620478250  TIP3      3045            0.0000000000
     17712      3110  TIP3      OH2           -15.7119316394       14.1521547994       59.5850573505  TIP3      3046            0.0000000000
     17713      3110  TIP3      H1            -14.7422950766       14.1978844877       59.6446602583  TIP3      3046            0.0000000000
     17714      3110  TIP3      H2            -15.8338068273       14.7143895246       58.8076914649  TIP3      3046            0.0000000000
     17715      3111  TIP3      OH2           -22.0285282787        8.7964278888       59.0617065176  TIP3      3047            0.0000000000
     17716      3111  TIP3      H1            -21.0567824048        8.7976012547       59.2267403825  TIP3      3047            0.0000000000
     17717      3111  TIP3      H2            -22.0932724725        8.1481111164       58.3278629280  TIP3      3047            0.0000000000
     17718      3112  TIP3      OH2            23.5827544032       13.8031016340       63.7040627666  TIP3      3048            0.0000000000
     17719      3112  TIP3      H1             22.6336236213       13.6873329737       63.5595359924  TIP3      3048            0.0000000000
     17720      3112  TIP3      H2             23.6958251518       13.4815889115       64.6287127678  TIP3      3048            0.0000000000
     17721      3113  TIP3      OH2           -22.5182351314       12.2250835470       65.8144855408  TIP3      3049            0.0000000000
     17722      3113  TIP3      H1            -22.8389763904       11.3580559251       66.0991289917  TIP3      3049            0.0000000000
     17723      3113  TIP3      H2            -22.2617184887       12.6322209090       66.6712550553  TIP3      3049            0.0000000000
     17724      3114  TIP3      OH2            -5.0063452863       13.0773574471       68.7803663354  TIP3      3050            0.0000000000
     17725      3114  TIP3      H1             -4.9850543707       13.1707342869       69.7560141903  TIP3      3050            0.0000000000
     17726      3114  TIP3      H2             -4.2594802643       13.6231058802       68.5239015245  TIP3      3050            0.0000000000
     17727      3115  TIP3      OH2            -5.2614343634       12.6258075660       71.5902853736  TIP3      3051            0.0000000000
     17728      3115  TIP3      H1             -5.9048700463       11.9218830987       71.3604798810  TIP3      3051            0.0000000000
     17729      3115  TIP3      H2             -4.9436825172       12.2877930781       72.4395825445  TIP3      3051            0.0000000000
     17730      3116  TIP3      OH2            -5.6623195643        6.6897804720       61.8260213006  TIP3      3052            0.0000000000
     17731      3116  TIP3      H1             -4.7897526902        7.0727801699       62.0224461696  TIP3      3052            0.0000000000
     17732      3116  TIP3      H2             -5.6987197848        5.9901664016       62.5103932354  TIP3      3052            0.0000000000
     17733      3117  TIP3      OH2            -5.3331472447        4.7663784565       63.7277846778  TIP3      3053            0.0000000000
     17734      3117  TIP3      H1             -6.0910519597        4.2791563312       64.1238366627  TIP3      3053            0.0000000000
     17735      3117  TIP3      H2             -4.7399468305        4.8840557156       64.4972393913  TIP3      3053            0.0000000000
     17736      3118  TIP3      OH2            -5.5998501649        7.3983325040       68.6973469485  TIP3      3054            0.0000000000
     17737      3118  TIP3      H1             -4.7764471465        7.0094524739       68.3559521373  TIP3      3054            0.0000000000
     17738      3118  TIP3      H2             -5.4339335635        8.3562288099       68.5601270305  TIP3      3054            0.0000000000
     17739      3119  TIP3      OH2            -6.9911269321       10.3547808655       70.9935646983  TIP3      3055            0.0000000000
     17740      3119  TIP3      H1             -7.7489775469       10.5454198215       71.5631700081  TIP3      3055            0.0000000000
     17741      3119  TIP3      H2             -7.4750336325        9.9500833782       70.2507357996  TIP3      3055            0.0000000000
     17742      3120  TIP3      OH2            -5.0073368921        4.5713528841       60.1283649490  TIP3      3056            0.0000000000
     17743      3120  TIP3      H1             -5.5896911790        4.8836402319       59.4036275208  TIP3      3056            0.0000000000
     17744      3120  TIP3      H2             -5.1363610543        5.2925505578       60.7762863419  TIP3      3056            0.0000000000
     17745      3121  TIP3      OH2            -6.6208351423        1.7833778742       58.6169577281  TIP3      3057            0.0000000000
     17746      3121  TIP3      H1             -6.5504021832        2.4452524955       57.9185475123  TIP3      3057            0.0000000000
     17747      3121  TIP3      H2             -6.8234006332        0.9603195608       58.1259548898  TIP3      3057            0.0000000000
     17748      3122  TIP3      OH2            -7.4854461111        3.2219144776       64.3436605150  TIP3      3058            0.0000000000
     17749      3122  TIP3      H1             -7.6310627312        2.2711114199       64.2570650158  TIP3      3058            0.0000000000
     17750      3122  TIP3      H2             -7.7929613085        3.4015081701       65.2522859295  TIP3      3058            0.0000000000
     17751      3123  TIP3      OH2           -22.4935009203        5.3473109521       68.4222006578  TIP3      3059            0.0000000000
     17752      3123  TIP3      H1            -22.3739506860        5.2679199975       67.4480849366  TIP3      3059            0.0000000000
     17753      3123  TIP3      H2            -21.5857292998        5.1449140328       68.7246924082  TIP3      3059            0.0000000000
     17754      3124  TIP3      OH2            -7.3749158310       -0.7278989875       57.7590855745  TIP3      3060            0.0000000000
     17755      3124  TIP3      H1             -6.8044940425       -1.1753362226       58.4097425126  TIP3      3060            0.0000000000
     17756      3124  TIP3      H2             -8.2466093444       -1.1406291883       57.8807140796  TIP3      3060            0.0000000000
     17757      3125  TIP3      OH2            -7.8663184061        0.8117314452       62.7063967172  TIP3      3061            0.0000000000
     17758      3125  TIP3      H1             -7.5517908820       -0.1052994597       62.8767909223  TIP3      3061            0.0000000000
     17759      3125  TIP3      H2             -7.0319170640        1.2132195231       62.4278186568  TIP3      3061            0.0000000000
     17760      3126  TIP3      OH2            -7.1919017558        1.3367151656       68.2154446394  TIP3      3062            0.0000000000
     17761      3126  TIP3      H1             -6.2301494421        1.5500402664       68.1872412212  TIP3      3062            0.0000000000
     17762      3126  TIP3      H2             -7.3793569850        1.4976484555       69.1659413141  TIP3      3062            0.0000000000
     17763      3127  TIP3      OH2            -7.1062800926        2.0823060108       70.9360297436  TIP3      3063            0.0000000000
     17764      3127  TIP3      H1             -7.9983110619        2.3659652699       71.2588953185  TIP3      3063            0.0000000000
     17765      3127  TIP3      H2             -6.6409979680        2.9266820568       70.7518964064  TIP3      3063            0.0000000000
     17766      3128  TIP3      OH2            -7.1369758671       -1.8908138801       62.8100546838  TIP3      3064            0.0000000000
     17767      3128  TIP3      H1             -6.9032648723       -2.3086801366       63.6712899607  TIP3      3064            0.0000000000
     17768      3128  TIP3      H2             -7.7185047623       -2.5553929843       62.3883024945  TIP3      3064            0.0000000000
     17769      3129  TIP3      OH2           -21.7340501326       -1.0874515514       67.5938519337  TIP3      3065            0.0000000000
     17770      3129  TIP3      H1            -21.2345690676       -1.9278269563       67.6559783537  TIP3      3065            0.0000000000
     17771      3129  TIP3      H2            -21.0506501286       -0.4328495032       67.7768377737  TIP3      3065            0.0000000000
     17772      3130  TIP3      OH2           -23.4157100670        2.1156259976       68.1592177066  TIP3      3066            0.0000000000
     17773      3130  TIP3      H1            -22.7453615192        1.6761731042       67.6134946330  TIP3      3066            0.0000000000
     17774      3130  TIP3      H2            -22.8606212860        2.7835405188       68.5808581922  TIP3      3066            0.0000000000
     17775      3131  TIP3      OH2            -5.3252425348       -1.8679697449       59.3840683844  TIP3      3067            0.0000000000
     17776      3131  TIP3      H1             -4.9338654021       -2.5730500756       58.8217528555  TIP3      3067            0.0000000000
     17777      3131  TIP3      H2             -4.6097358094       -1.2151174934       59.4159292932  TIP3      3067            0.0000000000
     17778      3132  TIP3      OH2           -22.6502175224       -1.9906786302       62.7048073180  TIP3      3068            0.0000000000
     17779      3132  TIP3      H1            -23.5844254197       -1.7662250950       62.7901217649  TIP3      3068            0.0000000000
     17780      3132  TIP3      H2            -22.3431625370       -1.4087600852       61.9739353966  TIP3      3068            0.0000000000
     17781      3133  TIP3      OH2            -8.2772145168       13.1135070566       64.4411010619  TIP3      3069            0.0000000000
     17782      3133  TIP3      H1             -7.5897526486       12.8294259802       63.8121242448  TIP3      3069            0.0000000000
     17783      3133  TIP3      H2             -7.7712931104       13.6232218440       65.0933501318  TIP3      3069            0.0000000000
     17784      3134  TIP3      OH2            23.8960937473       -3.1401496687       70.6766924274  TIP3      3070            0.0000000000
     17785      3134  TIP3      H1             23.2353492145       -3.4679164840       71.3112833369  TIP3      3070            0.0000000000
     17786      3134  TIP3      H2             23.3972513305       -2.4389831239       70.2352325268  TIP3      3070            0.0000000000
     17787      3135  TIP3      OH2           -17.9230670368       11.0857996797       71.2514586102  TIP3      3071            0.0000000000
     17788      3135  TIP3      H1            -18.2766305377       11.9343501796       70.9450210720  TIP3      3071            0.0000000000
     17789      3135  TIP3      H2            -16.9940804384       11.1401962685       70.9519697924  TIP3      3071            0.0000000000
     17790      3136  TIP3      OH2           -20.5521896412       14.3512480179       71.0721624550  TIP3      3072            0.0000000000
     17791      3136  TIP3      H1            -21.3641053635       14.8036909877       70.7513198612  TIP3      3072            0.0000000000
     17792      3136  TIP3      H2            -20.7853998689       14.0491569143       71.9734403581  TIP3      3072            0.0000000000
     17793      3137  TIP3      OH2           -18.0162310621       13.9287954503       70.3230805436  TIP3      3073            0.0000000000
     17794      3137  TIP3      H1            -18.9192240953       14.0651651917       70.6994067974  TIP3      3073            0.0000000000
     17795      3137  TIP3      H2            -18.0903208806       14.4726873370       69.5154223325  TIP3      3073            0.0000000000
     17796      3138  TIP3      OH2           -13.3150081473       13.7649743665       69.4473744956  TIP3      3074            0.0000000000
     17797      3138  TIP3      H1            -13.7761365620       14.2858924335       68.7655739524  TIP3      3074            0.0000000000
     17798      3138  TIP3      H2            -13.2261382875       14.4037950126       70.1720824152  TIP3      3074            0.0000000000
     17799      3139  TIP3      OH2           -11.1094458228       12.5643782978       70.5277996201  TIP3      3075            0.0000000000
     17800      3139  TIP3      H1            -11.8925265036       12.8485236943       70.0276130201  TIP3      3075            0.0000000000
     17801      3139  TIP3      H2            -10.5028375092       13.2887226891       70.3123368478  TIP3      3075            0.0000000000
     17802      3140  TIP3      OH2            -8.5633890334       14.1670661179       70.6029686426  TIP3      3076            0.0000000000
     17803      3140  TIP3      H1             -8.4290844819       15.1197493509       70.3879495269  TIP3      3076            0.0000000000
     17804      3140  TIP3      H2             -8.2183029385       13.7222204983       69.8063873579  TIP3      3076            0.0000000000
     17805      3141  TIP3      OH2           -21.0421491522       12.8786947030       68.0723163223  TIP3      3077            0.0000000000
     17806      3141  TIP3      H1            -21.1015474281       12.4714864129       68.9602751083  TIP3      3077            0.0000000000
     17807      3141  TIP3      H2            -20.2004920329       12.5107334119       67.7456593338  TIP3      3077            0.0000000000
     17808      3142  TIP3      OH2           -18.9828888824       11.5974533231       66.7894821946  TIP3      3078            0.0000000000
     17809      3142  TIP3      H1            -19.1103559471       10.6636326361       67.0450080459  TIP3      3078            0.0000000000
     17810      3142  TIP3      H2            -18.1243026927       11.7771274543       67.2230532440  TIP3      3078            0.0000000000
     17811      3143  TIP3      OH2           -16.3622446898       12.0903913733       67.6752211719  TIP3      3079            0.0000000000
     17812      3143  TIP3      H1            -16.2129327973       11.1531074226       67.4627430550  TIP3      3079            0.0000000000
     17813      3143  TIP3      H2            -16.2938805760       12.0756649506       68.6387561472  TIP3      3079            0.0000000000
     17814      3144  TIP3      OH2           -12.9096056337       -2.2515737716       66.8110397978  TIP3      3080            0.0000000000
     17815      3144  TIP3      H1            -13.5872104682       -2.8819147971       67.1121068565  TIP3      3080            0.0000000000
     17816      3144  TIP3      H2            -12.3595922507       -2.8031290235       66.2449976550  TIP3      3080            0.0000000000
     17817      3145  TIP3      OH2            -7.7518354482       -4.2435223427       66.8334971670  TIP3      3081            0.0000000000
     17818      3145  TIP3      H1             -7.1569885980       -3.6068917485       66.3690551233  TIP3      3081            0.0000000000
     17819      3145  TIP3      H2             -8.6448949204       -3.8576610010       66.6760212073  TIP3      3081            0.0000000000
     17820      3146  TIP3      OH2            -6.0900748624       -2.9274651619       65.1328502364  TIP3      3082            0.0000000000
     17821      3146  TIP3      H1             -5.4160987609       -3.5203740375       64.7337472781  TIP3      3082            0.0000000000
     17822      3146  TIP3      H2             -5.5676703435       -2.1019897463       65.2599994574  TIP3      3082            0.0000000000
     17823      3147  TIP3      OH2           -20.5078280354       -3.6707137073       64.6944142378  TIP3      3083            0.0000000000
     17824      3147  TIP3      H1            -21.2917824688       -3.7989008806       64.1290089193  TIP3      3083            0.0000000000
     17825      3147  TIP3      H2            -20.0508438865       -4.5303870342       64.5832688124  TIP3      3083            0.0000000000
     17826      3148  TIP3      OH2           -21.6779751555       -3.9111223957       60.4162064814  TIP3      3084            0.0000000000
     17827      3148  TIP3      H1            -21.2963968160       -3.2446992554       59.8188247939  TIP3      3084            0.0000000000
     17828      3148  TIP3      H2            -22.2799820203       -3.3542507551       60.9247686351  TIP3      3084            0.0000000000
     17829      3149  TIP3      OH2           -16.1051830311       -3.7010950937       64.4622479269  TIP3      3085            0.0000000000
     17830      3149  TIP3      H1            -15.1980359023       -3.3786078395       64.3365814887  TIP3      3085            0.0000000000
     17831      3149  TIP3      H2            -16.0927249809       -3.9286103130       65.3904508398  TIP3      3085            0.0000000000
     17832      3150  TIP3      OH2           -10.3220567864       -3.6956756944       66.0733270578  TIP3      3086            0.0000000000
     17833      3150  TIP3      H1            -10.4066114684       -3.5572257570       65.1249525736  TIP3      3086            0.0000000000
     17834      3150  TIP3      H2            -10.7198287205       -4.5883284811       66.1939212721  TIP3      3086            0.0000000000
     17835      3151  TIP3      OH2            -9.0939893059       -3.6636765711       61.7704390528  TIP3      3087            0.0000000000
     17836      3151  TIP3      H1             -9.8522093804       -3.0808040324       61.6164457517  TIP3      3087            0.0000000000
     17837      3151  TIP3      H2             -9.5214500647       -4.5130751177       62.0283749295  TIP3      3087            0.0000000000
     17838      3152  TIP3      OH2           -21.7379166031       12.2993601700       61.4194083810  TIP3      3088            0.0000000000
     17839      3152  TIP3      H1            -22.3695584755       12.3771036897       60.6900725692  TIP3      3088            0.0000000000
     17840      3152  TIP3      H2            -21.6897762362       13.2600770764       61.6098983569  TIP3      3088            0.0000000000
     17841      3153  TIP3      OH2           -19.9202946938       -1.9089480936       58.8907052791  TIP3      3089            0.0000000000
     17842      3153  TIP3      H1            -19.4007406243       -2.5542028805       58.3853998993  TIP3      3089            0.0000000000
     17843      3153  TIP3      H2            -19.2456335724       -1.6242732168       59.5327420915  TIP3      3089            0.0000000000
     17844      3154  TIP3      OH2           -14.9374129124       -1.7130244052       61.3073533442  TIP3      3090            0.0000000000
     17845      3154  TIP3      H1            -14.6564164676       -2.2649871287       62.0552433625  TIP3      3090            0.0000000000
     17846      3154  TIP3      H2            -14.8167731071       -0.8305231821       61.7215766123  TIP3      3090            0.0000000000
     17847      3155  TIP3      OH2           -12.9726202665       13.4182383530       59.7414442611  TIP3      3091            0.0000000000
     17848      3155  TIP3      H1            -12.0387118163       13.5834819147       59.5263224604  TIP3      3091            0.0000000000
     17849      3155  TIP3      H2            -13.1976250305       12.8528158511       58.9721608982  TIP3      3091            0.0000000000
     17850      3156  TIP3      OH2            -6.3166942033       12.8593087273       62.4986721508  TIP3      3092            0.0000000000
     17851      3156  TIP3      H1             -6.4925127910       12.0750172242       61.9271811520  TIP3      3092            0.0000000000
     17852      3156  TIP3      H2             -6.3790358974       13.5952607315       61.8534193126  TIP3      3092            0.0000000000
     17853      3157  TIP3      OH2           -20.1093529762       12.9876714998       58.3535013467  TIP3      3093            0.0000000000
     17854      3157  TIP3      H1            -20.3429577311       13.3325016004       59.2280959167  TIP3      3093            0.0000000000
     17855      3157  TIP3      H2            -19.2922071532       12.4868574833       58.5397355691  TIP3      3093            0.0000000000
     17856      3158  TIP3      OH2             7.4245686954        5.5274078152       64.4994616577  TIP3      3094            0.0000000000
     17857      3158  TIP3      H1              7.3762540923        6.5074661871       64.5299598119  TIP3      3094            0.0000000000
     17858      3158  TIP3      H2              6.6752107290        5.3012770391       63.9209682692  TIP3      3094            0.0000000000
     17859      3159  TIP3      OH2             6.2812068627        4.7268958845       68.0819761729  TIP3      3095            0.0000000000
     17860      3159  TIP3      H1              6.2369429836        4.0785083799       68.7919476606  TIP3      3095            0.0000000000
     17861      3159  TIP3      H2              5.9282336363        4.2392091603       67.3205950017  TIP3      3095            0.0000000000
     17862      3160  TIP3      OH2            -1.3421323479        4.4456144062       69.5708985561  TIP3      3096            0.0000000000
     17863      3160  TIP3      H1             -1.3085377579        3.7934810401       70.2932985894  TIP3      3096            0.0000000000
     17864      3160  TIP3      H2             -0.6161086295        5.0314589060       69.8144255854  TIP3      3096            0.0000000000
     17865      3161  TIP3      OH2             9.9154317697        7.7260555063       66.3111518121  TIP3      3097            0.0000000000
     17866      3161  TIP3      H1              9.5229204829        7.0055147532       66.8073610315  TIP3      3097            0.0000000000
     17867      3161  TIP3      H2              9.9662627883        8.4208751106       66.9963534848  TIP3      3097            0.0000000000
     17868      3162  TIP3      OH2            -0.4963128201        8.9183523911       67.9924150062  TIP3      3098            0.0000000000
     17869      3162  TIP3      H1             -0.7624762642        8.0090114587       67.7603081198  TIP3      3098            0.0000000000
     17870      3162  TIP3      H2              0.4554593100        8.7626604791       68.1295807742  TIP3      3098            0.0000000000
     17871      3163  TIP3      OH2            -3.8414026383        2.4115700904       63.5888867508  TIP3      3099            0.0000000000
     17872      3163  TIP3      H1             -4.2545810381        3.2896159703       63.5123364417  TIP3      3099            0.0000000000
     17873      3163  TIP3      H2             -4.3990186959        1.8964357933       62.9838940878  TIP3      3099            0.0000000000
     17874      3164  TIP3      OH2            -3.1146700571        4.7236323366       65.7454380317  TIP3      3100            0.0000000000
     17875      3164  TIP3      H1             -2.8503184806        3.8736784487       66.1535461993  TIP3      3100            0.0000000000
     17876      3164  TIP3      H2             -2.4698404366        4.8303914941       65.0337292327  TIP3      3100            0.0000000000
     17877      3165  TIP3      OH2             7.0385891586       12.8750305632       66.5828896322  TIP3      3101            0.0000000000
     17878      3165  TIP3      H1              7.6998923218       12.2158902408       66.2615908405  TIP3      3101            0.0000000000
     17879      3165  TIP3      H2              6.8491876030       12.4993487707       67.4521760512  TIP3      3101            0.0000000000
     17880      3166  TIP3      OH2             4.6306968763        7.1632142155       68.5799469867  TIP3      3102            0.0000000000
     17881      3166  TIP3      H1              4.9534771545        6.5803665305       67.8766301905  TIP3      3102            0.0000000000
     17882      3166  TIP3      H2              5.4752299635        7.3671167092       69.0106081604  TIP3      3102            0.0000000000
     17883      3167  TIP3      OH2            13.2489630215       -1.1672149746       69.2266739493  TIP3      3103            0.0000000000
     17884      3167  TIP3      H1             13.4090378933       -0.5926921298       69.9998623257  TIP3      3103            0.0000000000
     17885      3167  TIP3      H2             13.8198171185       -0.7490774656       68.5733088052  TIP3      3103            0.0000000000
     17886      3168  TIP3      OH2             7.7475715964        1.6286269821       68.8299277472  TIP3      3104            0.0000000000
     17887      3168  TIP3      H1              7.9603196538        0.6798090360       68.8873090732  TIP3      3104            0.0000000000
     17888      3168  TIP3      H2              7.6967502698        1.7373627423       67.8587251118  TIP3      3104            0.0000000000
     17889      3169  TIP3      OH2             0.9881230218       -0.5172022618       66.0835824058  TIP3      3105            0.0000000000
     17890      3169  TIP3      H1              1.5336504408        0.0904549964       65.5656181562  TIP3      3105            0.0000000000
     17891      3169  TIP3      H2              0.6032915257       -1.0825374784       65.3653579724  TIP3      3105            0.0000000000
     17892      3170  TIP3      OH2             8.6367946369       -0.2136240696       64.4056524933  TIP3      3106            0.0000000000
     17893      3170  TIP3      H1              9.2749906595       -0.5262473705       65.0840615561  TIP3      3106            0.0000000000
     17894      3170  TIP3      H2              9.2044444970        0.3930789756       63.9083115170  TIP3      3106            0.0000000000
     17895      3171  TIP3      OH2            -2.4401886299        2.2243384568       66.7123516623  TIP3      3107            0.0000000000
     17896      3171  TIP3      H1             -2.0292085105        1.5577223371       67.2964598467  TIP3      3107            0.0000000000
     17897      3171  TIP3      H2             -2.5144801570        1.7676715489       65.8547748438  TIP3      3107            0.0000000000
     17898      3172  TIP3      OH2             2.6096188570        3.6498464355       66.1498749940  TIP3      3108            0.0000000000
     17899      3172  TIP3      H1              3.3818204410        3.1359265590       66.4650130242  TIP3      3108            0.0000000000
     17900      3172  TIP3      H2              2.2937315606        3.0804592047       65.4368701654  TIP3      3108            0.0000000000
     17901      3173  TIP3      OH2            13.7854984802        0.3262561193       71.5274904237  TIP3      3109            0.0000000000
     17902      3173  TIP3      H1             13.0752215957        0.9766822219       71.3261895362  TIP3      3109            0.0000000000
     17903      3173  TIP3      H2             13.5808191675        0.0977635617       72.4410460988  TIP3      3109            0.0000000000
     17904      3174  TIP3      OH2            -0.1813757468       -1.3619520783       70.0622786749  TIP3      3110            0.0000000000
     17905      3174  TIP3      H1             -0.4899945732       -0.7966050969       69.3337866839  TIP3      3110            0.0000000000
     17906      3174  TIP3      H2             -0.8794080672       -1.1707324488       70.7392839066  TIP3      3110            0.0000000000
     17907      3175  TIP3      OH2             7.0831671548        8.0906145926       63.6135586193  TIP3      3111            0.0000000000
     17908      3175  TIP3      H1              6.8611482564        7.8427119385       62.7030596548  TIP3      3111            0.0000000000
     17909      3175  TIP3      H2              6.7918673152        9.0279112516       63.6649230600  TIP3      3111            0.0000000000
     17910      3176  TIP3      OH2             2.3443272362        6.3305352345       70.3898057242  TIP3      3112            0.0000000000
     17911      3176  TIP3      H1              1.5714017697        6.9419760581       70.4092481790  TIP3      3112            0.0000000000
     17912      3176  TIP3      H2              3.0090180935        6.9179504138       69.9920540775  TIP3      3112            0.0000000000
     17913      3177  TIP3      OH2            10.4949624519       -0.8506047639       66.3901971682  TIP3      3113            0.0000000000
     17914      3177  TIP3      H1             10.2395241689       -1.5976002318       66.9433061114  TIP3      3113            0.0000000000
     17915      3177  TIP3      H2             11.1437627991       -0.4132043687       66.9724391725  TIP3      3113            0.0000000000
     17916      3178  TIP3      OH2            -0.6231026375        0.4578569858       68.1043554829  TIP3      3114            0.0000000000
     17917      3178  TIP3      H1              0.0163123873        1.0651201427       68.5462429072  TIP3      3114            0.0000000000
     17918      3178  TIP3      H2             -0.0442687715       -0.1290179577       67.5529879208  TIP3      3114            0.0000000000
     17919      3179  TIP3      OH2             0.7542795759        8.3685221251       70.6726921247  TIP3      3115            0.0000000000
     17920      3179  TIP3      H1              0.7717840187        9.3373360193       70.7988760122  TIP3      3115            0.0000000000
     17921      3179  TIP3      H2              0.0377823757        8.1890440915       71.3306477720  TIP3      3115            0.0000000000
     17922      3180  TIP3      OH2            -3.1338171525        7.8531995452       61.8851488877  TIP3      3116            0.0000000000
     17923      3180  TIP3      H1             -3.3749470854        8.2476437673       61.0277897335  TIP3      3116            0.0000000000
     17924      3180  TIP3      H2             -3.0439059852        8.6493713499       62.4456532553  TIP3      3116            0.0000000000
     17925      3181  TIP3      OH2            10.4277724857        9.5398621148       68.5970963633  TIP3      3117            0.0000000000
     17926      3181  TIP3      H1              9.4783987731        9.7207591656       68.7693675457  TIP3      3117            0.0000000000
     17927      3181  TIP3      H2             10.7480829935       10.4583172452       68.4733932988  TIP3      3117            0.0000000000
     17928      3182  TIP3      OH2            10.8192225918       -2.1009981125       70.1064781730  TIP3      3118            0.0000000000
     17929      3182  TIP3      H1             10.0760767809       -1.5162553797       69.9222486392  TIP3      3118            0.0000000000
     17930      3182  TIP3      H2             11.5570615467       -1.6897289331       69.6245024767  TIP3      3118            0.0000000000
     17931      3183  TIP3      OH2             3.7291538838       -4.0385773408       67.4826057406  TIP3      3119            0.0000000000
     17932      3183  TIP3      H1              3.5766488678       -5.0045180909       67.4811381126  TIP3      3119            0.0000000000
     17933      3183  TIP3      H2              2.8625457633       -3.7212691072       67.8199395464  TIP3      3119            0.0000000000
     17934      3184  TIP3      OH2             8.7271570132       11.3536248856       65.2463527840  TIP3      3120            0.0000000000
     17935      3184  TIP3      H1              9.1347010902       10.6181709267       64.7418292856  TIP3      3120            0.0000000000
     17936      3184  TIP3      H2              9.2231918076       12.1181086883       64.8815763877  TIP3      3120            0.0000000000
     17937      3185  TIP3      OH2             9.9577348129        9.2669073864       63.7844634544  TIP3      3121            0.0000000000
     17938      3185  TIP3      H1              9.6420599143        8.5820938028       63.1735841694  TIP3      3121            0.0000000000
     17939      3185  TIP3      H2              9.9810549724        8.7684915440       64.6213847889  TIP3      3121            0.0000000000
     17940      3186  TIP3      OH2            11.5734942161        7.8918673166       72.2211034431  TIP3      3122            0.0000000000
     17941      3186  TIP3      H1             11.6150928891        7.3025243654       71.4504527642  TIP3      3122            0.0000000000
     17942      3186  TIP3      H2             11.7667970533        8.7786244806       71.8595099314  TIP3      3122            0.0000000000
     17943      3187  TIP3      OH2             6.0572574031        4.7605159472       62.0375249601  TIP3      3123            0.0000000000
     17944      3187  TIP3      H1              5.3701581471        5.3433388093       61.6612124063  TIP3      3123            0.0000000000
     17945      3187  TIP3      H2              6.7790273077        4.8540051593       61.3883821040  TIP3      3123            0.0000000000
     17946      3188  TIP3      OH2             6.1648254913        3.3637023435       59.0306795219  TIP3      3124            0.0000000000
     17947      3188  TIP3      H1              6.8662632527        3.3606755548       59.7021289417  TIP3      3124            0.0000000000
     17948      3188  TIP3      H2              6.4493622889        2.6063689229       58.5054995653  TIP3      3124            0.0000000000
     17949      3189  TIP3      OH2            13.4465785768        4.2262970154       70.3041844422  TIP3      3125            0.0000000000
     17950      3189  TIP3      H1             12.8171006611        4.9627126878       70.2575076770  TIP3      3125            0.0000000000
     17951      3189  TIP3      H2             13.9814547786        4.4128278339       69.5137122639  TIP3      3125            0.0000000000
     17952      3190  TIP3      OH2             9.5390130279        4.9326252256       62.9536547137  TIP3      3126            0.0000000000
     17953      3190  TIP3      H1              8.7942886242        5.1931041748       63.5467984624  TIP3      3126            0.0000000000
     17954      3190  TIP3      H2             10.0221233607        4.2892374382       63.5018326258  TIP3      3126            0.0000000000
     17955      3191  TIP3      OH2             9.3677563412        3.0202188061       72.0104493059  TIP3      3127            0.0000000000
     17956      3191  TIP3      H1              9.3690302252        3.7811701242       72.6194376324  TIP3      3127            0.0000000000
     17957      3191  TIP3      H2              8.6903206606        3.2856622541       71.3570243724  TIP3      3127            0.0000000000
     17958      3192  TIP3      OH2             1.0814989806        5.5911084059       64.8932294269  TIP3      3128            0.0000000000
     17959      3192  TIP3      H1              0.8213047212        5.2843860777       63.9909231827  TIP3      3128            0.0000000000
     17960      3192  TIP3      H2              1.7589944202        4.9419882994       65.1805696399  TIP3      3128            0.0000000000
     17961      3193  TIP3      OH2             2.4482446390        8.9961871182       67.5570141920  TIP3      3129            0.0000000000
     17962      3193  TIP3      H1              2.4513435271        8.5069190123       66.7233744751  TIP3      3129            0.0000000000
     17963      3193  TIP3      H2              3.2258796811        8.6319651245       68.0164292786  TIP3      3129            0.0000000000
     17964      3194  TIP3      OH2             1.4579951969        4.3050563378       68.5788465453  TIP3      3130            0.0000000000
     17965      3194  TIP3      H1              1.9913045197        4.4678198445       67.7725551844  TIP3      3130            0.0000000000
     17966      3194  TIP3      H2              1.8115073991        5.0023530519       69.1717217142  TIP3      3130            0.0000000000
     17967      3195  TIP3      OH2             7.8597690352        9.9428669086       69.2690776805  TIP3      3131            0.0000000000
     17968      3195  TIP3      H1              7.6286820199       10.6041304376       69.9401555881  TIP3      3131            0.0000000000
     17969      3195  TIP3      H2              7.6069073722        9.0902876083       69.6887706666  TIP3      3131            0.0000000000
     17970      3196  TIP3      OH2             8.4073709258        4.1920221337       60.6014798163  TIP3      3132            0.0000000000
     17971      3196  TIP3      H1              8.9491060764        4.3584867221       61.4120317138  TIP3      3132            0.0000000000
     17972      3196  TIP3      H2              8.8842030989        4.6787166244       59.8863511311  TIP3      3132            0.0000000000
     17973      3197  TIP3      OH2             6.0997418907       10.8873705353       64.0896034401  TIP3      3133            0.0000000000
     17974      3197  TIP3      H1              6.5160470508       11.1958582269       64.9029300033  TIP3      3133            0.0000000000
     17975      3197  TIP3      H2              5.5542867848       11.6415429598       63.8331345659  TIP3      3133            0.0000000000
     17976      3198  TIP3      OH2            12.1368020200       -4.1054255214       60.5712295648  TIP3      3134            0.0000000000
     17977      3198  TIP3      H1             11.1788562181       -4.0158565130       60.7774208730  TIP3      3134            0.0000000000
     17978      3198  TIP3      H2             12.3207028359       -3.2727190073       60.0998723093  TIP3      3134            0.0000000000
     17979      3199  TIP3      OH2             0.0431100580        4.6149307539       62.5376015215  TIP3      3135            0.0000000000
     17980      3199  TIP3      H1             -0.1892717067        5.4137205134       62.0098755226  TIP3      3135            0.0000000000
     17981      3199  TIP3      H2             -0.5723840038        3.9716320229       62.1790223449  TIP3      3135            0.0000000000
     17982      3200  TIP3      OH2            13.2720483179       10.2439773725       58.8976440578  TIP3      3136            0.0000000000
     17983      3200  TIP3      H1             13.4586863303       11.1859600168       59.0657655218  TIP3      3136            0.0000000000
     17984      3200  TIP3      H2             14.1874370007        9.9089935504       58.9293761591  TIP3      3136            0.0000000000
     17985      3201  TIP3      OH2            -3.7491751181        7.0334266367       71.3313447293  TIP3      3137            0.0000000000
     17986      3201  TIP3      H1             -4.2391443363        7.0108528998       70.4924814383  TIP3      3137            0.0000000000
     17987      3201  TIP3      H2             -3.8351333383        6.1101409090       71.6207490883  TIP3      3137            0.0000000000
     17988      3202  TIP3      OH2            -4.0620342826        9.8245716601       68.1941656010  TIP3      3138            0.0000000000
     17989      3202  TIP3      H1             -3.1127020499        9.6720447014       68.1410348888  TIP3      3138            0.0000000000
     17990      3202  TIP3      H2             -4.1095525252       10.6402583176       68.7117984599  TIP3      3138            0.0000000000
     17991      3203  TIP3      OH2             5.6013959732       13.7849137398       62.4900435011  TIP3      3139            0.0000000000
     17992      3203  TIP3      H1              5.4668099988       13.7297659929       61.5272339706  TIP3      3139            0.0000000000
     17993      3203  TIP3      H2              5.5842715443       14.7421988901       62.6722100274  TIP3      3139            0.0000000000
     17994      3204  TIP3      OH2            -0.7813814077       12.6754205753       64.3423978042  TIP3      3140            0.0000000000
     17995      3204  TIP3      H1             -0.6259084194       12.2611088876       65.2225565288  TIP3      3140            0.0000000000
     17996      3204  TIP3      H2             -1.6288625522       12.2584867805       64.1070602503  TIP3      3140            0.0000000000
     17997      3205  TIP3      OH2             8.6463299903       13.0171162843       59.4811107426  TIP3      3141            0.0000000000
     17998      3205  TIP3      H1              9.1186635402       12.2644936603       59.0575203526  TIP3      3141            0.0000000000
     17999      3205  TIP3      H2              8.6824295702       12.7676099624       60.4275815028  TIP3      3141            0.0000000000
     18000      3206  TIP3      OH2             8.3395661324       12.9512591079       62.2710717969  TIP3      3142            0.0000000000
     18001      3206  TIP3      H1              7.3753070984       13.0281747253       62.4155278480  TIP3      3142            0.0000000000
     18002      3206  TIP3      H2              8.5450737068       12.1946008306       62.8401022802  TIP3      3142            0.0000000000
     18003      3207  TIP3      OH2            -1.4612470987        8.2363826773      -72.8814098745  TIP3      3143            0.0000000000
     18004      3207  TIP3      H1             -1.3401152735        8.0587069749      -71.9296825897  TIP3      3143            0.0000000000
     18005      3207  TIP3      H2             -2.3721492695        7.9357887739      -73.0715733182  TIP3      3143            0.0000000000
     18006      3208  TIP3      OH2             1.1582777700       -3.1149371567       68.2189793081  TIP3      3144            0.0000000000
     18007      3208  TIP3      H1              0.2445904655       -3.2805185723       67.8973386625  TIP3      3144            0.0000000000
     18008      3208  TIP3      H2              1.0179491443       -2.3683821879       68.8202514592  TIP3      3144            0.0000000000
     18009      3209  TIP3      OH2             5.7430311572       -3.4343382620       71.7533595985  TIP3      3145            0.0000000000
     18010      3209  TIP3      H1              6.1300671924       -3.9215716324       72.4886509887  TIP3      3145            0.0000000000
     18011      3209  TIP3      H2              4.7770990640       -3.6302018559       71.8142216561  TIP3      3145            0.0000000000
     18012      3210  TIP3      OH2             9.8452034980        5.2293718487       58.5206200165  TIP3      3146            0.0000000000
     18013      3210  TIP3      H1              9.7746235058        5.0408360187       57.5583018434  TIP3      3146            0.0000000000
     18014      3210  TIP3      H2             10.7064391862        5.6707994755       58.5082004766  TIP3      3146            0.0000000000
     18015      3211  TIP3      OH2             5.4250979116       -0.8555419682       58.9454511959  TIP3      3147            0.0000000000
     18016      3211  TIP3      H1              5.1038831481       -0.9410119167       59.8595661140  TIP3      3147            0.0000000000
     18017      3211  TIP3      H2              5.1280888245       -1.7298031664       58.6236914588  TIP3      3147            0.0000000000
     18018      3212  TIP3      OH2             1.1735886537        1.8335818219       69.5253111871  TIP3      3148            0.0000000000
     18019      3212  TIP3      H1              0.4671232133        1.8583806794       70.2065462427  TIP3      3148            0.0000000000
     18020      3212  TIP3      H2              1.2075620158        2.7719320977       69.2276149818  TIP3      3148            0.0000000000
     18021      3213  TIP3      OH2             1.2898106687        2.0631567089       64.1114168529  TIP3      3149            0.0000000000
     18022      3213  TIP3      H1              0.3691752578        1.8392994668       63.9075460889  TIP3      3149            0.0000000000
     18023      3213  TIP3      H2              1.7246716695        1.6614275204       63.3250948915  TIP3      3149            0.0000000000
     18024      3214  TIP3      OH2             6.7527028591        2.4792663062       63.1751340184  TIP3      3150            0.0000000000
     18025      3214  TIP3      H1              6.3553262311        3.2946011424       62.7961042882  TIP3      3150            0.0000000000
     18026      3214  TIP3      H2              7.4229390084        2.2768134822       62.4994034867  TIP3      3150            0.0000000000
     18027      3215  TIP3      OH2             7.7771223580        1.9757129516       66.0465661701  TIP3      3151            0.0000000000
     18028      3215  TIP3      H1              7.4658685616        2.5328347481       65.3105650024  TIP3      3151            0.0000000000
     18029      3215  TIP3      H2              7.8522660037        1.1246668293       65.5763499662  TIP3      3151            0.0000000000
     18030      3216  TIP3      OH2            -1.0206536293        2.0632268608       71.2016449772  TIP3      3152            0.0000000000
     18031      3216  TIP3      H1             -1.0866006825        2.4686175252       72.0870836596  TIP3      3152            0.0000000000
     18032      3216  TIP3      H2             -1.5329971291        1.2530817671       71.4028925626  TIP3      3152            0.0000000000
     18033      3217  TIP3      OH2             2.2214056663       -0.5253980150       58.0609344450  TIP3      3153            0.0000000000
     18034      3217  TIP3      H1              1.7528401260       -0.9399849790       58.8163452780  TIP3      3153            0.0000000000
     18035      3217  TIP3      H2              1.5182511910       -0.0621494113       57.5845538025  TIP3      3153            0.0000000000
     18036      3218  TIP3      OH2            -4.4583716985       -0.7941600198       65.2259341521  TIP3      3154            0.0000000000
     18037      3218  TIP3      H1             -3.7956346593       -0.9189940525       65.9354132747  TIP3      3154            0.0000000000
     18038      3218  TIP3      H2             -4.0460326842       -1.2048346098       64.4437695369  TIP3      3154            0.0000000000
     18039      3219  TIP3      OH2            -3.2187289614       -0.1043380645       60.5469879700  TIP3      3155            0.0000000000
     18040      3219  TIP3      H1             -2.6560111595        0.4813870864       60.0008655858  TIP3      3155            0.0000000000
     18041      3219  TIP3      H2             -3.8896611486        0.5426229321       60.8485022637  TIP3      3155            0.0000000000
     18042      3220  TIP3      OH2             7.0455035393        3.5590764558       70.6389154068  TIP3      3156            0.0000000000
     18043      3220  TIP3      H1              7.3016933655        2.8595033353       69.9986843068  TIP3      3156            0.0000000000
     18044      3220  TIP3      H2              6.4920055291        3.0161024521       71.2330157423  TIP3      3156            0.0000000000
     18045      3221  TIP3      OH2             3.7758693589       -0.3716294847       65.4474007927  TIP3      3157            0.0000000000
     18046      3221  TIP3      H1              2.8943380034       -0.6577885513       65.7109583815  TIP3      3157            0.0000000000
     18047      3221  TIP3      H2              4.3088297057       -0.7137563014       66.1891114415  TIP3      3157            0.0000000000
     18048      3222  TIP3      OH2            -1.5062581084        1.0090146752       64.2169146600  TIP3      3158            0.0000000000
     18049      3222  TIP3      H1             -2.3696776316        1.2177921723       63.7803146782  TIP3      3158            0.0000000000
     18050      3222  TIP3      H2             -1.2883073712        0.1483569292       63.7962596042  TIP3      3158            0.0000000000
     18051      3223  TIP3      OH2             2.2225952746        1.1087884962       61.8769970099  TIP3      3159            0.0000000000
     18052      3223  TIP3      H1              3.1876187084        1.2036704953       62.0004752906  TIP3      3159            0.0000000000
     18053      3223  TIP3      H2              1.9774322158        1.7849168313       61.2162173812  TIP3      3159            0.0000000000
     18054      3224  TIP3      OH2             8.1727215397       -1.2279731042       68.6100644655  TIP3      3160            0.0000000000
     18055      3224  TIP3      H1              7.5059192453       -1.2282160221       69.3323119753  TIP3      3160            0.0000000000
     18056      3224  TIP3      H2              7.6667870318       -1.5417323325       67.8514810832  TIP3      3160            0.0000000000
     18057      3225  TIP3      OH2             0.9366921928        2.2810340026       59.4890658117  TIP3      3161            0.0000000000
     18058      3225  TIP3      H1              0.3992091525        1.9019289906       58.7730861616  TIP3      3161            0.0000000000
     18059      3225  TIP3      H2              1.7484238502        2.5091910683       59.0086317916  TIP3      3161            0.0000000000
     18060      3226  TIP3      OH2             4.9673657343        2.2261250561       67.2567633039  TIP3      3162            0.0000000000
     18061      3226  TIP3      H1              5.6699046608        1.7712785938       66.7749233921  TIP3      3162            0.0000000000
     18062      3226  TIP3      H2              4.9322655077        1.7122090255       68.0738217873  TIP3      3162            0.0000000000
     18063      3227  TIP3      OH2             0.0727649409       -1.5649518305       63.7678682547  TIP3      3163            0.0000000000
     18064      3227  TIP3      H1             -0.2988350402       -2.4710861650       63.7750066097  TIP3      3163            0.0000000000
     18065      3227  TIP3      H2              0.8311120775       -1.6916024343       63.1806716152  TIP3      3163            0.0000000000
     18066      3228  TIP3      OH2             3.6676340452        0.5584146706       69.7091681488  TIP3      3164            0.0000000000
     18067      3228  TIP3      H1              2.8867328211        1.1219722612       69.8199074573  TIP3      3164            0.0000000000
     18068      3228  TIP3      H2              4.2675428487        0.9173714037       70.3897458256  TIP3      3164            0.0000000000
     18069      3229  TIP3      OH2             4.2659354643        6.7893943823       61.4365557551  TIP3      3165            0.0000000000
     18070      3229  TIP3      H1              3.4596153037        6.3523698763       61.0746542605  TIP3      3165            0.0000000000
     18071      3229  TIP3      H2              4.0020421090        6.9397453202       62.3681602617  TIP3      3165            0.0000000000
     18072      3230  TIP3      OH2            11.4677681185        6.0414170926       70.2608516819  TIP3      3166            0.0000000000
     18073      3230  TIP3      H1             12.0397298127        6.5222963436       69.6186052899  TIP3      3166            0.0000000000
     18074      3230  TIP3      H2             10.6464012361        6.0029144389       69.7223305863  TIP3      3166            0.0000000000
     18075      3231  TIP3      OH2             8.0864002688       -0.3868778321       59.5944864845  TIP3      3167            0.0000000000
     18076      3231  TIP3      H1              7.1401261488       -0.2101144322       59.4471834254  TIP3      3167            0.0000000000
     18077      3231  TIP3      H2              8.4356020105        0.4592073652       59.9524844361  TIP3      3167            0.0000000000
     18078      3232  TIP3      OH2             8.8198749953        1.5807360858       61.1682574683  TIP3      3168            0.0000000000
     18079      3232  TIP3      H1              9.6781503537        1.4403410775       61.6208992113  TIP3      3168            0.0000000000
     18080      3232  TIP3      H2              8.9572403175        2.4115517622       60.6817792588  TIP3      3168            0.0000000000
     18081      3233  TIP3      OH2            -0.6232182417        6.1960442206       67.1839521560  TIP3      3169            0.0000000000
     18082      3233  TIP3      H1              0.0410740118        6.1325450008       66.4716517569  TIP3      3169            0.0000000000
     18083      3233  TIP3      H2             -0.5217896421        5.3785166062       67.6919438833  TIP3      3169            0.0000000000
     18084      3234  TIP3      OH2             6.3427056709        8.2721317813       60.4488307162  TIP3      3170            0.0000000000
     18085      3234  TIP3      H1              6.0000365012        9.1265441159       60.7919854172  TIP3      3170            0.0000000000
     18086      3234  TIP3      H2              5.6169317306        7.6558902131       60.6832659800  TIP3      3170            0.0000000000
     18087      3235  TIP3      OH2            13.7313919688        1.6636767269       60.9857953185  TIP3      3171            0.0000000000
     18088      3235  TIP3      H1             13.1620765896        1.4145659472       60.2316216969  TIP3      3171            0.0000000000
     18089      3235  TIP3      H2             13.8112597444        2.6227539434       60.7777850719  TIP3      3171            0.0000000000
     18090      3236  TIP3      OH2            11.9610733499       10.5101515002       61.3585184140  TIP3      3172            0.0000000000
     18091      3236  TIP3      H1             11.6613957773        9.6734197178       61.7336060425  TIP3      3172            0.0000000000
     18092      3236  TIP3      H2             12.3575464446       10.2700867238       60.5051263673  TIP3      3172            0.0000000000
     18093      3237  TIP3      OH2             9.2339941100        5.3756434029       68.5282436578  TIP3      3173            0.0000000000
     18094      3237  TIP3      H1              8.3017254702        5.1549920279       68.3692145422  TIP3      3173            0.0000000000
     18095      3237  TIP3      H2              9.6717579641        4.6282173987       68.0696515509  TIP3      3173            0.0000000000
     18096      3238  TIP3      OH2             1.7652518396        9.6798946277       64.6078492849  TIP3      3174            0.0000000000
     18097      3238  TIP3      H1              2.2536152249       10.4956165787       64.4015940242  TIP3      3174            0.0000000000
     18098      3238  TIP3      H2              0.8881528671        9.8998357114       64.2638563788  TIP3      3174            0.0000000000
     18099      3239  TIP3      OH2            -2.4658639569        4.5027445453       59.1758065584  TIP3      3175            0.0000000000
     18100      3239  TIP3      H1             -1.9048224219        5.1814086769       59.5903054138  TIP3      3175            0.0000000000
     18101      3239  TIP3      H2             -3.3706992563        4.7988615474       59.3999035021  TIP3      3175            0.0000000000
     18102      3240  TIP3      OH2             3.1460763606        7.3489536932       64.0672337782  TIP3      3176            0.0000000000
     18103      3240  TIP3      H1              2.8202622067        8.2616281259       64.1968633311  TIP3      3176            0.0000000000
     18104      3240  TIP3      H2              2.4716910735        6.8402408610       64.5470932589  TIP3      3176            0.0000000000
     18105      3241  TIP3      OH2             3.6336156319       11.5325461937       70.4352154579  TIP3      3177            0.0000000000
     18106      3241  TIP3      H1              4.1213786865       12.3363720904       70.2143623617  TIP3      3177            0.0000000000
     18107      3241  TIP3      H2              4.2348444140       11.2174205463       71.1335441793  TIP3      3177            0.0000000000
     18108      3242  TIP3      OH2             1.8498672242       12.3136761432       63.6166939308  TIP3      3178            0.0000000000
     18109      3242  TIP3      H1              0.8901341702       12.4626676560       63.7794420865  TIP3      3178            0.0000000000
     18110      3242  TIP3      H2              2.2275769424       13.1496945097       63.9480452746  TIP3      3178            0.0000000000
     18111      3243  TIP3      OH2             7.1046291751        7.5132016423       70.1495845546  TIP3      3179            0.0000000000
     18112      3243  TIP3      H1              6.8475287448        7.3288892104       71.0601762884  TIP3      3179            0.0000000000
     18113      3243  TIP3      H2              7.7956831526        6.8610751804       69.9694452699  TIP3      3179            0.0000000000
     18114      3244  TIP3      OH2             9.5164702798        8.6267321917       59.2317978102  TIP3      3180            0.0000000000
     18115      3244  TIP3      H1              9.7988653070        8.1289520638       60.0253372042  TIP3      3180            0.0000000000
     18116      3244  TIP3      H2              8.5658769888        8.4210078358       59.2846985456  TIP3      3180            0.0000000000
     18117      3245  TIP3      OH2            13.9177521953       12.9475530943       59.4615165112  TIP3      3181            0.0000000000
     18118      3245  TIP3      H1             14.6353264528       13.5917215907       59.2892685059  TIP3      3181            0.0000000000
     18119      3245  TIP3      H2             13.2359037678       13.5649102484       59.7932900967  TIP3      3181            0.0000000000
     18120      3246  TIP3      OH2            -2.0643298810       -0.6305998274       71.7754452579  TIP3      3182            0.0000000000
     18121      3246  TIP3      H1             -2.9625972400       -0.2786460040       71.8843458188  TIP3      3182            0.0000000000
     18122      3246  TIP3      H2             -2.0215211038       -1.3441589482       72.4524859463  TIP3      3182            0.0000000000
     18123      3247  TIP3      OH2            10.2455094977        7.2393317774       61.4842592653  TIP3      3183            0.0000000000
     18124      3247  TIP3      H1             10.0096093943        6.4382896510       61.9988364234  TIP3      3183            0.0000000000
     18125      3247  TIP3      H2             11.2068449404        7.2571203276       61.6336637442  TIP3      3183            0.0000000000
     18126      3248  TIP3      OH2            -2.3502080350       11.1692808414       70.4148385890  TIP3      3184            0.0000000000
     18127      3248  TIP3      H1             -2.0203740649       10.2582996704       70.4014819854  TIP3      3184            0.0000000000
     18128      3248  TIP3      H2             -2.0516753337       11.4796021958       71.2867237371  TIP3      3184            0.0000000000
     18129      3249  TIP3      OH2             3.6362745918        9.6797969416       57.7510790748  TIP3      3185            0.0000000000
     18130      3249  TIP3      H1              3.6963386290        8.9266576050       57.1397679806  TIP3      3185            0.0000000000
     18131      3249  TIP3      H2              3.1350138050        9.2534649157       58.4801049207  TIP3      3185            0.0000000000
     18132      3250  TIP3      OH2             2.3528789745        9.1921073040       60.2028838928  TIP3      3186            0.0000000000
     18133      3250  TIP3      H1              2.6935187574        8.6761329837       60.9444830012  TIP3      3186            0.0000000000
     18134      3250  TIP3      H2              2.4821976402       10.1150642849       60.5242592384  TIP3      3186            0.0000000000
     18135      3251  TIP3      OH2            -1.0516834662        6.4330486743       60.6865577593  TIP3      3187            0.0000000000
     18136      3251  TIP3      H1             -1.7910896693        6.8419912505       61.1835606925  TIP3      3187            0.0000000000
     18137      3251  TIP3      H2             -0.5731525157        7.2121945992       60.3493153095  TIP3      3187            0.0000000000
     18138      3252  TIP3      OH2             6.7653295274       -0.9376762539       70.9796061213  TIP3      3188            0.0000000000
     18139      3252  TIP3      H1              7.4511739013       -0.8773229475       71.6532944083  TIP3      3188            0.0000000000
     18140      3252  TIP3      H2              6.3663102643       -1.7922284378       71.2221459435  TIP3      3188            0.0000000000
     18141      3253  TIP3      OH2             7.4707681958       -1.3250779216       62.1017878039  TIP3      3189            0.0000000000
     18142      3253  TIP3      H1              7.7127533398       -0.8902757330       61.2615645239  TIP3      3189            0.0000000000
     18143      3253  TIP3      H2              8.0611470821       -0.8776791483       62.7234631695  TIP3      3189            0.0000000000
     18144      3254  TIP3      OH2             5.1841739298       10.8464584542       60.8615609788  TIP3      3190            0.0000000000
     18145      3254  TIP3      H1              4.3643031815       11.3757629854       60.9542260308  TIP3      3190            0.0000000000
     18146      3254  TIP3      H2              5.7322059756       11.4236455789       60.3104666212  TIP3      3190            0.0000000000
     18147      3255  TIP3      OH2             4.7245794761        0.4434818356       62.9136364443  TIP3      3191            0.0000000000
     18148      3255  TIP3      H1              5.4926342839        1.0455801034       62.9453894072  TIP3      3191            0.0000000000
     18149      3255  TIP3      H2              4.5139987583        0.2865148003       63.8503822729  TIP3      3191            0.0000000000
     18150      3256  TIP3      OH2             5.5183838540        1.5559627219       71.9411680033  TIP3      3192            0.0000000000
     18151      3256  TIP3      H1              5.2036145556        1.8787571485       72.8054059488  TIP3      3192            0.0000000000
     18152      3256  TIP3      H2              5.8028900071        0.6515820113       72.1516448373  TIP3      3192            0.0000000000
     18153      3257  TIP3      OH2             5.5552116306       -2.5273229833       63.7402950191  TIP3      3193            0.0000000000
     18154      3257  TIP3      H1              5.2456551092       -1.8896209147       64.4023446963  TIP3      3193            0.0000000000
     18155      3257  TIP3      H2              6.2746338380       -1.9854104574       63.3265537216  TIP3      3193            0.0000000000
     18156      3258  TIP3      OH2             2.6196850763       11.8697956404       60.9179448010  TIP3      3194            0.0000000000
     18157      3258  TIP3      H1              2.6810736917       12.6767981610       60.3512368829  TIP3      3194            0.0000000000
     18158      3258  TIP3      H2              2.3108739097       12.2472636469       61.7733042172  TIP3      3194            0.0000000000
     18159      3259  TIP3      OH2             1.2305472982       -1.4066827270       60.4748732944  TIP3      3195            0.0000000000
     18160      3259  TIP3      H1              1.1849247947       -0.5041236452       60.8440963719  TIP3      3195            0.0000000000
     18161      3259  TIP3      H2              2.1383364821       -1.6517706737       60.7460826311  TIP3      3195            0.0000000000
     18162      3260  TIP3      OH2            10.0778969192        3.1412455953       66.9296316637  TIP3      3196            0.0000000000
     18163      3260  TIP3      H1              9.2537391964        2.6860337544       66.6742827588  TIP3      3196            0.0000000000
     18164      3260  TIP3      H2             10.5915264477        2.4358551860       67.3838636269  TIP3      3196            0.0000000000
     18165      3261  TIP3      OH2            -0.5467443222        9.0477202446       59.5022595388  TIP3      3197            0.0000000000
     18166      3261  TIP3      H1              0.1470564054        9.6282111504       59.8537331587  TIP3      3197            0.0000000000
     18167      3261  TIP3      H2             -0.0204083932        8.5594049874       58.8381946840  TIP3      3197            0.0000000000
     18168      3262  TIP3      OH2            -2.2039626134        1.7252722259       58.6773367638  TIP3      3198            0.0000000000
     18169      3262  TIP3      H1             -2.1631007771        2.6808041683       58.8910906644  TIP3      3198            0.0000000000
     18170      3262  TIP3      H2             -3.0941400119        1.5897991495       58.3441047610  TIP3      3198            0.0000000000
     18171      3263  TIP3      OH2            11.1272602062       12.3727964276       68.5842360879  TIP3      3199            0.0000000000
     18172      3263  TIP3      H1             11.0417238619       13.0720766908       67.9085944240  TIP3      3199            0.0000000000
     18173      3263  TIP3      H2             12.0825768524       12.4512110398       68.7889182958  TIP3      3199            0.0000000000
     18174      3264  TIP3      OH2            -1.3875150117       -3.4825533184       67.4663398402  TIP3      3200            0.0000000000
     18175      3264  TIP3      H1             -1.5357369705       -3.5029130988       66.4925814591  TIP3      3200            0.0000000000
     18176      3264  TIP3      H2             -1.7379118729       -4.3691968052       67.7106693114  TIP3      3200            0.0000000000
     18177      3265  TIP3      OH2            -2.4306452078       10.4342835093       63.5895871344  TIP3      3201            0.0000000000
     18178      3265  TIP3      H1             -3.2940745755       10.8555492744       63.5043368855  TIP3      3201            0.0000000000
     18179      3265  TIP3      H2             -1.9772107074       10.8552385406       62.8460628208  TIP3      3201            0.0000000000
     18180      3266  TIP3      OH2             5.6338661995       11.5250879346       57.8672203689  TIP3      3202            0.0000000000
     18181      3266  TIP3      H1              4.9215621140       10.8659837185       58.0399096186  TIP3      3202            0.0000000000
     18182      3266  TIP3      H2              6.3372639714       10.9166336487       57.5965188105  TIP3      3202            0.0000000000
     18183      3267  TIP3      OH2            10.1714766785       11.2404209331       58.0324472903  TIP3      3203            0.0000000000
     18184      3267  TIP3      H1             10.4575032248       10.4717370935       58.5528531592  TIP3      3203            0.0000000000
     18185      3267  TIP3      H2             10.9391666305       11.4356170405       57.4772001188  TIP3      3203            0.0000000000
     18186      3268  TIP3      OH2             1.0454369232        7.2007891890       57.8200626043  TIP3      3204            0.0000000000
     18187      3268  TIP3      H1              1.1803082865        6.4542905727       58.4233206666  TIP3      3204            0.0000000000
     18188      3268  TIP3      H2              1.8151973437        7.0852066967       57.2298282325  TIP3      3204            0.0000000000
     18189      3269  TIP3      OH2             6.4913370701        8.3208824089       57.6289849011  TIP3      3205            0.0000000000
     18190      3269  TIP3      H1              6.2196721059        8.3729418253       58.5606809074  TIP3      3205            0.0000000000
     18191      3269  TIP3      H2              6.3168591127        7.3672754557       57.4604550009  TIP3      3205            0.0000000000
     18192      3270  TIP3      OH2             2.2461887195        5.2222794491       60.3183372227  TIP3      3206            0.0000000000
     18193      3270  TIP3      H1              1.7166438809        4.6633318150       60.9050036554  TIP3      3206            0.0000000000
     18194      3270  TIP3      H2              2.5663972893        4.5705989881       59.6534138470  TIP3      3206            0.0000000000
     18195      3271  TIP3      OH2             3.3349768190        3.4509164431       58.4765408552  TIP3      3207            0.0000000000
     18196      3271  TIP3      H1              3.1957249194        3.3839916001       57.5091695477  TIP3      3207            0.0000000000
     18197      3271  TIP3      H2              4.3113192101        3.4734510551       58.5574921394  TIP3      3207            0.0000000000
     18198      3272  TIP3      OH2            12.6164333541        5.7502824287       57.8782422435  TIP3      3208            0.0000000000
     18199      3272  TIP3      H1             12.4750849584        5.3921126947       56.9841430163  TIP3      3208            0.0000000000
     18200      3272  TIP3      H2             12.7342587340        6.7156088500       57.7064331442  TIP3      3208            0.0000000000
     18201      3273  TIP3      OH2             2.3172157650       -1.5120206100       70.8847807375  TIP3      3209            0.0000000000
     18202      3273  TIP3      H1              2.8034302712       -0.7829940597       70.4517093659  TIP3      3209            0.0000000000
     18203      3273  TIP3      H2              1.3797136042       -1.3139141111       70.7027838397  TIP3      3209            0.0000000000
     18204      3274  TIP3      OH2             3.9555896295        4.2886480922       71.1881521346  TIP3      3210            0.0000000000
     18205      3274  TIP3      H1              4.7436252042        4.1870618563       70.6494920729  TIP3      3210            0.0000000000
     18206      3274  TIP3      H2              3.5588609721        5.1487722325       70.9634230018  TIP3      3210            0.0000000000
     18207      3275  TIP3      OH2             3.0846887499       -3.8275597374       71.7371692978  TIP3      3211            0.0000000000
     18208      3275  TIP3      H1              2.9250390651       -2.8964931900       71.4376914588  TIP3      3211            0.0000000000
     18209      3275  TIP3      H2              2.4005979680       -4.2244291541       71.1632132648  TIP3      3211            0.0000000000
     18210      3276  TIP3      OH2             3.1425249579       14.1546375177       59.5846771147  TIP3      3212            0.0000000000
     18211      3276  TIP3      H1              4.1121877068       14.1993374930       59.6429966495  TIP3      3212            0.0000000000
     18212      3276  TIP3      H2              3.0189114351       14.7152012155       58.8065407201  TIP3      3212            0.0000000000
     18213      3277  TIP3      OH2            -3.3181873416        8.6927356323       59.0472723650  TIP3      3213            0.0000000000
     18214      3277  TIP3      H1             -2.3537762467        8.7919069968       59.2074339927  TIP3      3213            0.0000000000
     18215      3277  TIP3      H2             -3.2869671379        8.0704640104       58.2812478091  TIP3      3213            0.0000000000
     18216      3278  TIP3      OH2            -4.5061509035       14.0694617176       63.9809768646  TIP3      3214            0.0000000000
     18217      3278  TIP3      H1             -5.2384028108       13.5772617770       63.5458789399  TIP3      3214            0.0000000000
     18218      3278  TIP3      H2             -4.2310372392       13.4372767814       64.6719104231  TIP3      3214            0.0000000000
     18219      3279  TIP3      OH2            -3.6943665164       12.2277459731       65.8677420669  TIP3      3215            0.0000000000
     18220      3279  TIP3      H1             -4.0594205684       11.3649011514       66.1095639458  TIP3      3215            0.0000000000
     18221      3279  TIP3      H2             -3.4428113959       12.5731948349       66.7459446236  TIP3      3215            0.0000000000
     18222      3280  TIP3      OH2            13.8547090794       13.0724944230       68.7693279557  TIP3      3216            0.0000000000
     18223      3280  TIP3      H1             13.8783212612       13.1612284152       69.7419811341  TIP3      3216            0.0000000000
     18224      3280  TIP3      H2             14.5975317501       13.6253686898       68.5181872725  TIP3      3216            0.0000000000
     18225      3281  TIP3      OH2            13.5903940351       12.6259413975       71.5941597529  TIP3      3217            0.0000000000
     18226      3281  TIP3      H1             12.9505153258       11.9198660994       71.3592538907  TIP3      3217            0.0000000000
     18227      3281  TIP3      H2             13.9142321121       12.2836918594       72.4392216474  TIP3      3217            0.0000000000
     18228      3282  TIP3      OH2            13.1888319305        6.6699095829       61.8232206898  TIP3      3218            0.0000000000
     18229      3282  TIP3      H1             14.0517900874        7.0686898807       62.0236925702  TIP3      3218            0.0000000000
     18230      3282  TIP3      H2             13.1570799871        5.9792266745       62.5172821901  TIP3      3218            0.0000000000
     18231      3283  TIP3      OH2            13.5331197640        4.7726621612       63.7360728145  TIP3      3219            0.0000000000
     18232      3283  TIP3      H1             12.7730991338        4.2839336196       64.1266684579  TIP3      3219            0.0000000000
     18233      3283  TIP3      H2             14.1345602735        4.8727717941       64.5035038264  TIP3      3219            0.0000000000
     18234      3284  TIP3      OH2            13.2449746852        7.3845072285       68.7007174060  TIP3      3220            0.0000000000
     18235      3284  TIP3      H1             14.0737172006        7.0021124304       68.3546085224  TIP3      3220            0.0000000000
     18236      3284  TIP3      H2             13.4222425483        8.3444904191       68.5597965700  TIP3      3220            0.0000000000
     18237      3285  TIP3      OH2            11.8691762539       10.3525804666       70.9908718729  TIP3      3221            0.0000000000
     18238      3285  TIP3      H1             11.1114031470       10.5529447431       71.5638581579  TIP3      3221            0.0000000000
     18239      3285  TIP3      H2             11.3776346926        9.9509502656       70.2525338507  TIP3      3221            0.0000000000
     18240      3286  TIP3      OH2            13.8483640210        4.5735703187       60.1263085723  TIP3      3222            0.0000000000
     18241      3286  TIP3      H1             13.2653493243        4.8845244212       59.4042538536  TIP3      3222            0.0000000000
     18242      3286  TIP3      H2             13.7283327309        5.2964075269       60.7735926724  TIP3      3222            0.0000000000
     18243      3287  TIP3      OH2            12.2314154224        1.7800861102       58.6145646592  TIP3      3223            0.0000000000
     18244      3287  TIP3      H1             12.3060630672        2.4457232832       57.9201504821  TIP3      3223            0.0000000000
     18245      3287  TIP3      H2             12.0333276931        0.9598208394       58.1217101249  TIP3      3223            0.0000000000
     18246      3288  TIP3      OH2            11.3742060547        3.2223745262       64.3400053735  TIP3      3224            0.0000000000
     18247      3288  TIP3      H1             11.2226510545        2.2713162567       64.2576189564  TIP3      3224            0.0000000000
     18248      3288  TIP3      H2             11.0646036611        3.4010683367       65.2506785045  TIP3      3224            0.0000000000
     18249      3289  TIP3      OH2            -3.6216946122        5.2804519211       68.3809626578  TIP3      3225            0.0000000000
     18250      3289  TIP3      H1             -3.4691825519        5.2598339931       67.4116937530  TIP3      3225            0.0000000000
     18251      3289  TIP3      H2             -2.7224864284        5.1151478803       68.7222384877  TIP3      3225            0.0000000000
     18252      3290  TIP3      OH2            11.4894297851       -0.7405437561       57.7373401737  TIP3      3226            0.0000000000
     18253      3290  TIP3      H1             12.0552986937       -1.1643954210       58.4118176651  TIP3      3226            0.0000000000
     18254      3290  TIP3      H2             10.6089717334       -1.1086713243       57.9133444049  TIP3      3226            0.0000000000
     18255      3291  TIP3      OH2            10.9886547686        0.8111163991       62.7040482101  TIP3      3227            0.0000000000
     18256      3291  TIP3      H1             11.3047576777       -0.1072794807       62.8764964194  TIP3      3227            0.0000000000
     18257      3291  TIP3      H2             11.8240100029        1.2129384759       62.4276424673  TIP3      3227            0.0000000000
     18258      3292  TIP3      OH2            11.6518396769        1.3372159338       68.2230970635  TIP3      3228            0.0000000000
     18259      3292  TIP3      H1             12.6166705673        1.5435048049       68.1805179521  TIP3      3228            0.0000000000
     18260      3292  TIP3      H2             11.4980257923        1.4948087121       69.1755198933  TIP3      3228            0.0000000000
     18261      3293  TIP3      OH2            11.7427377185        2.0922981272       70.8776841124  TIP3      3229            0.0000000000
     18262      3293  TIP3      H1             10.8717570196        2.3427468448       71.2799235055  TIP3      3229            0.0000000000
     18263      3293  TIP3      H2             12.2476659911        2.9252222159       70.7420710652  TIP3      3229            0.0000000000
     18264      3294  TIP3      OH2            11.7171335408       -1.8954267132       62.8066005824  TIP3      3230            0.0000000000
     18265      3294  TIP3      H1             11.9534809930       -2.3120977663       63.6668180067  TIP3      3230            0.0000000000
     18266      3294  TIP3      H2             11.1309551977       -2.5596616652       62.3925859773  TIP3      3230            0.0000000000
     18267      3295  TIP3      OH2            -2.7282566359       -1.0627991087       67.2882659557  TIP3      3231            0.0000000000
     18268      3295  TIP3      H1             -2.3820771740       -1.9276553002       67.6015065505  TIP3      3231            0.0000000000
     18269      3295  TIP3      H2             -2.2326732105       -0.4361228015       67.8217343619  TIP3      3231            0.0000000000
     18270      3296  TIP3      OH2            -4.4982753597        1.8794068569       68.3565267772  TIP3      3232            0.0000000000
     18271      3296  TIP3      H1             -3.9535718498        1.6728453957       67.5820757911  TIP3      3232            0.0000000000
     18272      3296  TIP3      H2             -4.0893000149        2.6894355346       68.6944743303  TIP3      3232            0.0000000000
     18273      3297  TIP3      OH2            13.5096905546       -1.8709956761       59.4065039321  TIP3      3233            0.0000000000
     18274      3297  TIP3      H1             13.9163333383       -2.5667517939       58.8424218215  TIP3      3233            0.0000000000
     18275      3297  TIP3      H2             14.2060307627       -1.2007740097       59.4315982992  TIP3      3233            0.0000000000
     18276      3298  TIP3      OH2            -4.1633916465       -1.8150550492       62.4947662713  TIP3      3234            0.0000000000
     18277      3298  TIP3      H1             -5.1076653765       -1.6768121319       62.3226561645  TIP3      3234            0.0000000000
     18278      3298  TIP3      H2             -3.7607208092       -1.3341278120       61.7525868549  TIP3      3234            0.0000000000
     18279      3299  TIP3      OH2            10.5734907689       13.1172899059       64.4454659047  TIP3      3235            0.0000000000
     18280      3299  TIP3      H1             11.2683256837       12.8287881208       63.8155863959  TIP3      3235            0.0000000000
     18281      3299  TIP3      H2             11.0901921056       13.6290007271       65.0890383303  TIP3      3235            0.0000000000
     18282      3300  TIP3      OH2            -4.2373782594       -3.1783983584       70.8393701134  TIP3      3236            0.0000000000
     18283      3300  TIP3      H1             -4.9979377708       -3.4872781771       71.3408560201  TIP3      3236            0.0000000000
     18284      3300  TIP3      H2             -4.6621113888       -2.5072639075       70.2741858560  TIP3      3236            0.0000000000
     18285      3301  TIP3      OH2             0.9462810285       11.0801652264       71.2504124669  TIP3      3237            0.0000000000
     18286      3301  TIP3      H1              0.6151074495       11.9312002105       70.9396580607  TIP3      3237            0.0000000000
     18287      3301  TIP3      H2              1.8789174073       11.1261121633       70.9546875511  TIP3      3237            0.0000000000
     18288      3302  TIP3      OH2            -1.6879486693       14.3144519137       71.1203694820  TIP3      3238            0.0000000000
     18289      3302  TIP3      H1             -2.4585995509       14.7899990657       70.7699867941  TIP3      3238            0.0000000000
     18290      3302  TIP3      H2             -1.9582652259       14.0189790858       72.0151678469  TIP3      3238            0.0000000000
     18291      3303  TIP3      OH2             0.8023426293       13.9018699319       70.2824027083  TIP3      3239            0.0000000000
     18292      3303  TIP3      H1             -0.0828605409       14.0499364668       70.6882549847  TIP3      3239            0.0000000000
     18293      3303  TIP3      H2              0.7462080082       14.4827679491       69.5044817158  TIP3      3239            0.0000000000
     18294      3304  TIP3      OH2             5.5183957754       13.7553406717       69.4375318159  TIP3      3240            0.0000000000
     18295      3304  TIP3      H1              5.0705750228       14.2939773527       68.7625689643  TIP3      3240            0.0000000000
     18296      3304  TIP3      H2              5.6394358326       14.3913199183       70.1723285928  TIP3      3240            0.0000000000
     18297      3305  TIP3      OH2             7.7674474435       12.5133893209       70.4558722814  TIP3      3241            0.0000000000
     18298      3305  TIP3      H1              6.9611672393       12.8686627056       70.0510341078  TIP3      3241            0.0000000000
     18299      3305  TIP3      H2              8.3467439093       13.2887159478       70.3761380211  TIP3      3241            0.0000000000
     18300      3306  TIP3      OH2            10.3331192844       14.1326106745       70.6232666439  TIP3      3242            0.0000000000
     18301      3306  TIP3      H1             10.3932040827       15.0971903818       70.4378853646  TIP3      3242            0.0000000000
     18302      3306  TIP3      H2             10.6301696269       13.7330754760       69.7899317383  TIP3      3242            0.0000000000
     18303      3307  TIP3      OH2            -2.1427491106       12.9116119721       68.0968158471  TIP3      3243            0.0000000000
     18304      3307  TIP3      H1             -2.2557768339       12.4641219832       68.9637527709  TIP3      3243            0.0000000000
     18305      3307  TIP3      H2             -1.3191829807       12.4987634784       67.7660249062  TIP3      3243            0.0000000000
     18306      3308  TIP3      OH2            -0.0958352456       11.6103943475       66.8021503971  TIP3      3244            0.0000000000
     18307      3308  TIP3      H1             -0.2479190056       10.6803669119       67.0540091421  TIP3      3244            0.0000000000
     18308      3308  TIP3      H2              0.7680028909       11.7718608170       67.2314368482  TIP3      3244            0.0000000000
     18309      3309  TIP3      OH2             2.4918732720       12.0989346433       67.6682643042  TIP3      3245            0.0000000000
     18310      3309  TIP3      H1              2.6444757835       11.1589057861       67.4596551056  TIP3      3245            0.0000000000
     18311      3309  TIP3      H2              2.5703189387       12.0865251902       68.6339159868  TIP3      3245            0.0000000000
     18312      3310  TIP3      OH2             5.9021569012       -2.2473168853       66.7737959250  TIP3      3246            0.0000000000
     18313      3310  TIP3      H1              5.2742480545       -2.8958826378       67.1343185892  TIP3      3246            0.0000000000
     18314      3310  TIP3      H2              6.5037038008       -2.8083749635       66.2701944090  TIP3      3246            0.0000000000
     18315      3311  TIP3      OH2            11.1195876469       -4.2809514796       66.8315757175  TIP3      3247            0.0000000000
     18316      3311  TIP3      H1             11.7133222276       -3.6210768912       66.4025061565  TIP3      3247            0.0000000000
     18317      3311  TIP3      H2             10.2305659186       -3.8808803260       66.7128584396  TIP3      3247            0.0000000000
     18318      3312  TIP3      OH2            12.7593188158       -2.9367126756       65.1424119748  TIP3      3248            0.0000000000
     18319      3312  TIP3      H1             13.4359938240       -3.5312162346       64.7443315178  TIP3      3248            0.0000000000
     18320      3312  TIP3      H2             13.2831878539       -2.1136165674       65.2664925224  TIP3      3248            0.0000000000
     18321      3313  TIP3      OH2            -1.6440329888       -3.6016192352       64.6795930679  TIP3      3249            0.0000000000
     18322      3313  TIP3      H1             -2.4515331615       -3.7679483182       64.1586374811  TIP3      3249            0.0000000000
     18323      3313  TIP3      H2             -1.2281706490       -4.4880471389       64.6056596728  TIP3      3249            0.0000000000
     18324      3314  TIP3      OH2            -2.9379009089       -3.8802317458       60.3643166162  TIP3      3250            0.0000000000
     18325      3314  TIP3      H1             -2.4102745582       -3.2349196207       59.8578887906  TIP3      3250            0.0000000000
     18326      3314  TIP3      H2             -3.4670326361       -3.3034468311       60.9334524256  TIP3      3250            0.0000000000
     18327      3315  TIP3      OH2             2.7512337908       -3.6728448668       64.4699321677  TIP3      3251            0.0000000000
     18328      3315  TIP3      H1              3.6667954633       -3.3770788507       64.3474364121  TIP3      3251            0.0000000000
     18329      3315  TIP3      H2              2.7457440479       -3.9259951418       65.3934732618  TIP3      3251            0.0000000000
     18330      3316  TIP3      OH2             8.5324432022       -3.6891909669       66.0728291845  TIP3      3252            0.0000000000
     18331      3316  TIP3      H1              8.4506248326       -3.5604942334       65.1226669042  TIP3      3252            0.0000000000
     18332      3316  TIP3      H2              8.1397236849       -4.5834587894       66.2016926593  TIP3      3252            0.0000000000
     18333      3317  TIP3      OH2             9.7601278055       -3.6660518358       61.7639343675  TIP3      3253            0.0000000000
     18334      3317  TIP3      H1              9.0027410975       -3.0794795030       61.6207723677  TIP3      3253            0.0000000000
     18335      3317  TIP3      H2              9.3329694715       -4.5110099539       62.0388714238  TIP3      3253            0.0000000000
     18336      3318  TIP3      OH2            -3.0181917386       12.0642756048       61.4570491298  TIP3      3254            0.0000000000
     18337      3318  TIP3      H1             -3.6589951970       12.0373439574       60.7229844080  TIP3      3254            0.0000000000
     18338      3318  TIP3      H2             -3.0089882208       13.0230716261       61.5901741731  TIP3      3254            0.0000000000
     18339      3319  TIP3      OH2            -1.1219600434       -1.9333279355       58.9404915374  TIP3      3255            0.0000000000
     18340      3319  TIP3      H1             -0.5909534546       -2.5307539274       58.3844737572  TIP3      3255            0.0000000000
     18341      3319  TIP3      H2             -0.4369499771       -1.5972445854       59.5450115142  TIP3      3255            0.0000000000
     18342      3320  TIP3      OH2             3.9200040382       -1.7123292790       61.3035444607  TIP3      3256            0.0000000000
     18343      3320  TIP3      H1              4.2005696944       -2.2704887393       62.0471438746  TIP3      3256            0.0000000000
     18344      3320  TIP3      H2              4.0360158571       -0.8311067666       61.7215526573  TIP3      3256            0.0000000000
     18345      3321  TIP3      OH2             5.8830771322       13.4177723114       59.7414744513  TIP3      3257            0.0000000000
     18346      3321  TIP3      H1              6.8166349100       13.5849049182       59.5262336677  TIP3      3257            0.0000000000
     18347      3321  TIP3      H2              5.6583781425       12.8529613853       58.9718373284  TIP3      3257            0.0000000000
     18348      3322  TIP3      OH2            12.5310022631       12.8627957224       62.5031398341  TIP3      3258            0.0000000000
     18349      3322  TIP3      H1             12.3676421288       12.0770682885       61.9299296754  TIP3      3258            0.0000000000
     18350      3322  TIP3      H2             12.4814979162       13.5950291995       61.8531249142  TIP3      3258            0.0000000000
     18351      3323  TIP3      OH2            -1.2259822885       13.0688230338       58.3702042659  TIP3      3259            0.0000000000
     18352      3323  TIP3      H1             -1.4878958430       13.3259145919       59.2651276426  TIP3      3259            0.0000000000
     18353      3323  TIP3      H2             -0.4450241655       12.5015384721       58.5202361219  TIP3      3259            0.0000000000
     18354      3324  TIP3      OH2            17.4497747517        4.4998013285       69.6493489845  TIP3      3260            0.0000000000
     18355      3324  TIP3      H1             17.5538468101        3.7674733146       70.2816194920  TIP3      3260            0.0000000000
     18356      3324  TIP3      H2             18.2461365178        5.0087423601       69.8200050344  TIP3      3260            0.0000000000
     18357      3325  TIP3      OH2            18.3674576483        8.9117859630       68.0071699805  TIP3      3261            0.0000000000
     18358      3325  TIP3      H1             18.0845305076        8.0088706563       67.7657445612  TIP3      3261            0.0000000000
     18359      3325  TIP3      H2             19.3200077966        8.7302490058       68.1406845954  TIP3      3261            0.0000000000
     18360      3326  TIP3      OH2            15.0039737778        2.4252844349       63.5758764803  TIP3      3262            0.0000000000
     18361      3326  TIP3      H1             14.5887218191        3.3031711637       63.4990993100  TIP3      3262            0.0000000000
     18362      3326  TIP3      H2             14.4561897103        1.8926557974       62.9865588769  TIP3      3262            0.0000000000
     18363      3327  TIP3      OH2            15.7596423352        4.6798496036       65.7518863899  TIP3      3263            0.0000000000
     18364      3327  TIP3      H1             16.0433778989        3.8345552350       66.1514901212  TIP3      3263            0.0000000000
     18365      3327  TIP3      H2             16.4038852968        4.8004069927       65.0413573255  TIP3      3263            0.0000000000
     18366      3328  TIP3      OH2            19.5242971401       -0.2828173076       66.0368767398  TIP3      3264            0.0000000000
     18367      3328  TIP3      H1             19.9274849019        0.4801405028       65.5726347814  TIP3      3264            0.0000000000
     18368      3328  TIP3      H2             19.2893941129       -0.8638283881       65.2895820582  TIP3      3264            0.0000000000
     18369      3329  TIP3      OH2            16.4007511292        2.1406223643       66.7305778462  TIP3      3265            0.0000000000
     18370      3329  TIP3      H1             17.0597829346        1.6101676017       67.2193366143  TIP3      3265            0.0000000000
     18371      3329  TIP3      H2             16.5418195636        1.8023495395       65.8329252968  TIP3      3265            0.0000000000
     18372      3330  TIP3      OH2            21.5459796369        3.6892822643       66.0899917854  TIP3      3266            0.0000000000
     18373      3330  TIP3      H1             22.2177842296        3.1102708757       66.4967159866  TIP3      3266            0.0000000000
     18374      3330  TIP3      H2             21.0040595581        3.0297455455       65.6090796197  TIP3      3266            0.0000000000
     18375      3331  TIP3      OH2            18.6099184366       -1.3606658553       70.0676221675  TIP3      3267            0.0000000000
     18376      3331  TIP3      H1             18.3726739899       -0.7791844374       69.3127995936  TIP3      3267            0.0000000000
     18377      3331  TIP3      H2             17.8996978770       -1.1348334998       70.7165254976  TIP3      3267            0.0000000000
     18378      3332  TIP3      OH2            21.1324922726        6.2770734151       70.3409308044  TIP3      3268            0.0000000000
     18379      3332  TIP3      H1             20.3721046012        6.9034068285       70.4213916346  TIP3      3268            0.0000000000
     18380      3332  TIP3      H2             21.8010969777        6.9154810676       70.0637067816  TIP3      3268            0.0000000000
     18381      3333  TIP3      OH2            18.2136717089        0.5271469559       68.0885853489  TIP3      3269            0.0000000000
     18382      3333  TIP3      H1             18.8907214152        1.1711704217       68.3755975823  TIP3      3269            0.0000000000
     18383      3333  TIP3      H2             18.6996736286        0.0957248198       67.3350399932  TIP3      3269            0.0000000000
     18384      3334  TIP3      OH2            19.5920346926        8.3663934078       70.6717316877  TIP3      3270            0.0000000000
     18385      3334  TIP3      H1             19.6008508762        9.3357665710       70.7915433036  TIP3      3270            0.0000000000
     18386      3334  TIP3      H2             18.8768907667        8.1834650812       71.3305810315  TIP3      3270            0.0000000000
     18387      3335  TIP3      OH2            15.7304728586        7.8448095546       61.8949209526  TIP3      3271            0.0000000000
     18388      3335  TIP3      H1             15.4506475086        8.2279273606       61.0446022410  TIP3      3271            0.0000000000
     18389      3335  TIP3      H2             15.8058733765        8.6530075267       62.4434236135  TIP3      3271            0.0000000000
     18390      3336  TIP3      OH2            22.5497541425       -4.0591926017       67.4086746827  TIP3      3272            0.0000000000
     18391      3336  TIP3      H1             22.4777641422       -5.0144503115       67.5213483112  TIP3      3272            0.0000000000
     18392      3336  TIP3      H2             21.7323495539       -3.7348624365       67.8240254873  TIP3      3272            0.0000000000
     18393      3337  TIP3      OH2            19.9305268260        5.5970927229       64.8778521562  TIP3      3273            0.0000000000
     18394      3337  TIP3      H1             19.6718897100        5.2295519336       64.0010018648  TIP3      3273            0.0000000000
     18395      3337  TIP3      H2             20.5699684610        4.9323373166       65.2239830688  TIP3      3273            0.0000000000
     18396      3338  TIP3      OH2            21.2294303286        8.9407121545       67.5799776001  TIP3      3274            0.0000000000
     18397      3338  TIP3      H1             21.2570768996        8.5026413597       66.7190983904  TIP3      3274            0.0000000000
     18398      3338  TIP3      H2             22.1237775902        8.7546370060       67.9157065519  TIP3      3274            0.0000000000
     18399      3339  TIP3      OH2            20.3145938581        4.3363483463       68.6323171773  TIP3      3275            0.0000000000
     18400      3339  TIP3      H1             20.8452105620        4.3996614706       67.8054479238  TIP3      3275            0.0000000000
     18401      3339  TIP3      H2             20.7262750617        5.0413024599       69.1774465001  TIP3      3275            0.0000000000
     18402      3340  TIP3      OH2            18.9262619135        4.5958645330       62.4980280549  TIP3      3276            0.0000000000
     18403      3340  TIP3      H1             18.6636005364        5.3983980682       61.9950987193  TIP3      3276            0.0000000000
     18404      3340  TIP3      H2             18.2544063782        3.9601180734       62.2405729340  TIP3      3276            0.0000000000
     18405      3341  TIP3      OH2            15.0901870095        7.0474715470       71.3448001467  TIP3      3277            0.0000000000
     18406      3341  TIP3      H1             14.6193849911        7.0053162165       70.4935285801  TIP3      3277            0.0000000000
     18407      3341  TIP3      H2             15.0591115279        6.1150053905       71.6170018034  TIP3      3277            0.0000000000
     18408      3342  TIP3      OH2            14.7913074343        9.8220249179       68.1780900808  TIP3      3278            0.0000000000
     18409      3342  TIP3      H1             15.7465313601        9.6825251325       68.1305449225  TIP3      3278            0.0000000000
     18410      3342  TIP3      H2             14.7399855446       10.6325076410       68.7052487082  TIP3      3278            0.0000000000
     18411      3343  TIP3      OH2            18.0598690142       12.7033713044       64.3800291330  TIP3      3279            0.0000000000
     18412      3343  TIP3      H1             18.1965745880       12.2476558830       65.2366852922  TIP3      3279            0.0000000000
     18413      3343  TIP3      H2             17.2477882193       12.2649671609       64.0624693010  TIP3      3279            0.0000000000
     18414      3344  TIP3      OH2            17.3859868047        8.2348759961      -72.8753722110  TIP3      3280            0.0000000000
     18415      3344  TIP3      H1             17.5176740217        8.0657721038      -71.9234955153  TIP3      3280            0.0000000000
     18416      3344  TIP3      H2             16.4767241905        7.9366729547      -73.0719210623  TIP3      3280            0.0000000000
     18417      3345  TIP3      OH2            20.0033785873       -3.0946105186       68.2231867023  TIP3      3281            0.0000000000
     18418      3345  TIP3      H1             19.0874221191       -3.2538614616       67.9013868829  TIP3      3281            0.0000000000
     18419      3345  TIP3      H2             19.8739046602       -2.3018144459       68.7741385934  TIP3      3281            0.0000000000
     18420      3346  TIP3      OH2            20.0631504468        1.8169105417       69.6097788040  TIP3      3282            0.0000000000
     18421      3346  TIP3      H1             19.2612266306        1.8230413636       70.1654926031  TIP3      3282            0.0000000000
     18422      3346  TIP3      H2             20.0190762452        2.6966391966       69.1761908347  TIP3      3282            0.0000000000
     18423      3347  TIP3      OH2            20.0618874060        1.9324270043       64.3712786679  TIP3      3283            0.0000000000
     18424      3347  TIP3      H1             19.1136173180        1.6974847237       64.2933201340  TIP3      3283            0.0000000000
     18425      3347  TIP3      H2             20.4154287374        1.6316469000       63.5159844666  TIP3      3283            0.0000000000
     18426      3348  TIP3      OH2            17.7925582913        2.0788493270       71.2244706403  TIP3      3284            0.0000000000
     18427      3348  TIP3      H1             17.7541180707        2.4580285462       72.1204204643  TIP3      3284            0.0000000000
     18428      3348  TIP3      H2             17.3079820726        1.2494399169       71.4053585839  TIP3      3284            0.0000000000
     18429      3349  TIP3      OH2            20.9901904961       -0.6723416731       58.1207187265  TIP3      3285            0.0000000000
     18430      3349  TIP3      H1             20.5158520730       -0.9677005314       58.9141388146  TIP3      3285            0.0000000000
     18431      3349  TIP3      H2             20.3624133183       -0.0886912188       57.6697023039  TIP3      3285            0.0000000000
     18432      3350  TIP3      OH2            14.3946217002       -0.8356555003       65.2489420757  TIP3      3286            0.0000000000
     18433      3350  TIP3      H1             15.0965965474       -0.8715177860       65.9333552908  TIP3      3286            0.0000000000
     18434      3350  TIP3      H2             14.8344023834       -1.1788366473       64.4516181536  TIP3      3286            0.0000000000
     18435      3351  TIP3      OH2            15.6173306605       -0.1073604984       60.5503012401  TIP3      3287            0.0000000000
     18436      3351  TIP3      H1             16.1642455479        0.4829716942       59.9943795731  TIP3      3287            0.0000000000
     18437      3351  TIP3      H2             14.9486560456        0.5422625399       60.8569452007  TIP3      3287            0.0000000000
     18438      3352  TIP3      OH2            22.0791108023       -0.2205421609       65.5650147330  TIP3      3288            0.0000000000
     18439      3352  TIP3      H1             21.2989735120       -0.6084269043       65.9913546064  TIP3      3288            0.0000000000
     18440      3352  TIP3      H2             22.7807205486       -0.4279946906       66.1978203812  TIP3      3288            0.0000000000
     18441      3353  TIP3      OH2            17.4074545668        1.0611035117       64.2894267284  TIP3      3289            0.0000000000
     18442      3353  TIP3      H1             16.5407277389        1.2309711577       63.8704116855  TIP3      3289            0.0000000000
     18443      3353  TIP3      H2             17.6896862249        0.2214075186       63.8810024528  TIP3      3289            0.0000000000
     18444      3354  TIP3      OH2            21.1489372974        1.0914355152       61.9007262612  TIP3      3290            0.0000000000
     18445      3354  TIP3      H1             22.0430447283        1.3715612024       62.0626596477  TIP3      3290            0.0000000000
     18446      3354  TIP3      H2             20.8006408899        1.7531743777       61.2651083048  TIP3      3290            0.0000000000
     18447      3355  TIP3      OH2            19.8171451214        2.2273668033       59.4935292113  TIP3      3291            0.0000000000
     18448      3355  TIP3      H1             19.2138952968        1.8914442227       58.8067712993  TIP3      3291            0.0000000000
     18449      3355  TIP3      H2             20.5843854449        2.4866456773       58.9570118076  TIP3      3291            0.0000000000
     18450      3356  TIP3      OH2            18.9244035010       -1.5613290863       63.7197841013  TIP3      3292            0.0000000000
     18451      3356  TIP3      H1             18.5683539397       -2.4707108996       63.7691585854  TIP3      3292            0.0000000000
     18452      3356  TIP3      H2             19.7032195669       -1.6817296219       63.1682376381  TIP3      3292            0.0000000000
     18453      3357  TIP3      OH2            22.3933629773        0.4164404754       70.0800327141  TIP3      3293            0.0000000000
     18454      3357  TIP3      H1             21.7836222068        1.0748077178       69.6792124706  TIP3      3293            0.0000000000
     18455      3357  TIP3      H2             23.0896456389        0.9616057826       70.4249504627  TIP3      3293            0.0000000000
     18456      3358  TIP3      OH2            22.9354188146        6.8616075844       61.2575288715  TIP3      3294            0.0000000000
     18457      3358  TIP3      H1             22.1631803128        6.2754999867       61.0870417949  TIP3      3294            0.0000000000
     18458      3358  TIP3      H2             22.9485066398        6.8811112457       62.2318531412  TIP3      3294            0.0000000000
     18459      3359  TIP3      OH2            18.2839475700        6.2332426611       67.2283425294  TIP3      3295            0.0000000000
     18460      3359  TIP3      H1             18.8901291255        6.1188884642       66.4718324410  TIP3      3295            0.0000000000
     18461      3359  TIP3      H2             18.3001507205        5.3623611622       67.6588900066  TIP3      3295            0.0000000000
     18462      3360  TIP3      OH2            20.6459241258        9.7002236102       64.6193700909  TIP3      3296            0.0000000000
     18463      3360  TIP3      H1             21.0596169853       10.5392961079       64.3637354897  TIP3      3296            0.0000000000
     18464      3360  TIP3      H2             19.7345723721        9.8819462253       64.3300093790  TIP3      3296            0.0000000000
     18465      3361  TIP3      OH2            16.3955957921        4.4914085125       59.1688852591  TIP3      3297            0.0000000000
     18466      3361  TIP3      H1             16.9498223697        5.1644388415       59.5974000502  TIP3      3297            0.0000000000
     18467      3361  TIP3      H2             15.4903749039        4.7885074320       59.3932429309  TIP3      3297            0.0000000000
     18468      3362  TIP3      OH2            21.9631453603        7.3686380826       64.0155255546  TIP3      3298            0.0000000000
     18469      3362  TIP3      H1             21.6287833321        8.2648371913       64.2429522242  TIP3      3298            0.0000000000
     18470      3362  TIP3      H2             21.3227293006        6.8189114597       64.5145018267  TIP3      3298            0.0000000000
     18471      3363  TIP3      OH2            22.5410690873       11.4951496172       70.4803637367  TIP3      3299            0.0000000000
     18472      3363  TIP3      H1             22.9251226593       12.3657596205       70.3545823395  TIP3      3299            0.0000000000
     18473      3363  TIP3      H2             23.1173595921       11.1477071356       71.1806488613  TIP3      3299            0.0000000000
     18474      3364  TIP3      OH2            20.7577914538       12.3319254573       63.7018552739  TIP3      3300            0.0000000000
     18475      3364  TIP3      H1             19.7688449128       12.3675827207       63.7137017401  TIP3      3300            0.0000000000
     18476      3364  TIP3      H2             20.9253366986       13.2210371347       64.0308039790  TIP3      3300            0.0000000000
     18477      3365  TIP3      OH2            16.7393056013       -0.5941535812       71.7954364947  TIP3      3301            0.0000000000
     18478      3365  TIP3      H1             15.8307460903       -0.2854141288       71.8928066571  TIP3      3301            0.0000000000
     18479      3365  TIP3      H2             16.8376050641       -1.3111373804       72.4617387114  TIP3      3301            0.0000000000
     18480      3366  TIP3      OH2            16.5292710057       11.1845700627       70.4114262453  TIP3      3302            0.0000000000
     18481      3366  TIP3      H1             16.8447747950       10.2667843671       70.3975058235  TIP3      3302            0.0000000000
     18482      3366  TIP3      H2             16.8132113284       11.4870835855       71.2922649320  TIP3      3302            0.0000000000
     18483      3367  TIP3      OH2            22.4355381588        9.6944792720       57.6737112165  TIP3      3303            0.0000000000
     18484      3367  TIP3      H1             22.5726358329        8.9019802079       57.1339993777  TIP3      3303            0.0000000000
     18485      3367  TIP3      H2             22.0507558887        9.2776293328       58.4748864194  TIP3      3303            0.0000000000
     18486      3368  TIP3      OH2            21.4265562628        9.2114881164       60.1749136343  TIP3      3304            0.0000000000
     18487      3368  TIP3      H1             21.3646579204        8.6144544870       60.9342926047  TIP3      3304            0.0000000000
     18488      3368  TIP3      H2             21.0537010377       10.0668519260       60.4878162917  TIP3      3304            0.0000000000
     18489      3369  TIP3      OH2            17.8085871849        6.4271635561       60.6844323883  TIP3      3305            0.0000000000
     18490      3369  TIP3      H1             17.0970283288        6.8655466078       61.1921992907  TIP3      3305            0.0000000000
     18491      3369  TIP3      H2             18.2829622979        7.2137206116       60.3354223891  TIP3      3305            0.0000000000
     18492      3370  TIP3      OH2            21.7990897846       11.9503504861       61.0522953018  TIP3      3306            0.0000000000
     18493      3370  TIP3      H1             21.4979956310       12.5762126360       60.3415226589  TIP3      3306            0.0000000000
     18494      3370  TIP3      H2             21.0813540692       12.1648070843       61.6926046844  TIP3      3306            0.0000000000
     18495      3371  TIP3      OH2            19.9046663805       -1.3335931481       60.5053443403  TIP3      3307            0.0000000000
     18496      3371  TIP3      H1             19.9418147801       -0.4454952182       60.8979591002  TIP3      3307            0.0000000000
     18497      3371  TIP3      H2             20.8383187954       -1.6034113637       60.6870263701  TIP3      3307            0.0000000000
     18498      3372  TIP3      OH2            18.3150651080        8.9265423064       59.5373963062  TIP3      3308            0.0000000000
     18499      3372  TIP3      H1             18.8273138288        9.7133779964       59.8567777817  TIP3      3308            0.0000000000
     18500      3372  TIP3      H2             18.8940069542        8.5955562548       58.8268419716  TIP3      3308            0.0000000000
     18501      3373  TIP3      OH2            16.6553709096        1.7263051652       58.6730029087  TIP3      3309            0.0000000000
     18502      3373  TIP3      H1             16.6941099392        2.6782545755       58.9015415142  TIP3      3309            0.0000000000
     18503      3373  TIP3      H2             15.7600068202        1.5901980809       58.3496357199  TIP3      3309            0.0000000000
     18504      3374  TIP3      OH2            17.4505125244       -3.4969732043       67.4812290582  TIP3      3310            0.0000000000
     18505      3374  TIP3      H1             17.3426854239       -3.4846401863       66.5015373729  TIP3      3310            0.0000000000
     18506      3374  TIP3      H2             17.1028624025       -4.3865627720       67.6982728880  TIP3      3310            0.0000000000
     18507      3375  TIP3      OH2            16.4849876473       10.4389341195       63.5507531360  TIP3      3311            0.0000000000
     18508      3375  TIP3      H1             15.6091463394       10.8507863228       63.4830141812  TIP3      3311            0.0000000000
     18509      3375  TIP3      H2             16.9197693415       10.8675591109       62.7944261119  TIP3      3311            0.0000000000
     18510      3376  TIP3      OH2            19.8848026488        7.1779940004       57.8666205286  TIP3      3312            0.0000000000
     18511      3376  TIP3      H1             20.0194274867        6.4477984492       58.4838522348  TIP3      3312            0.0000000000
     18512      3376  TIP3      H2             20.6332220262        7.0449392223       57.2522132320  TIP3      3312            0.0000000000
     18513      3377  TIP3      OH2            21.0462942677        5.2221183194       60.3103012175  TIP3      3313            0.0000000000
     18514      3377  TIP3      H1             20.5064319432        4.6729714310       60.8988412799  TIP3      3313            0.0000000000
     18515      3377  TIP3      H2             21.3814475465        4.5881215105       59.6414868742  TIP3      3313            0.0000000000
     18516      3378  TIP3      OH2            22.1879776545        3.4784517443       58.4894175980  TIP3      3314            0.0000000000
     18517      3378  TIP3      H1             21.9469825225        3.2549543721       57.5671327031  TIP3      3314            0.0000000000
     18518      3378  TIP3      H2             23.1501011983        3.4587776198       58.4430974899  TIP3      3314            0.0000000000
     18519      3379  TIP3      OH2            21.1392825119       -1.6073001729       70.8718063537  TIP3      3315            0.0000000000
     18520      3379  TIP3      H1             21.6222290088       -0.8128025636       70.5490133458  TIP3      3315            0.0000000000
     18521      3379  TIP3      H2             20.2153629890       -1.3513354455       70.6798775345  TIP3      3315            0.0000000000
     18522      3380  TIP3      OH2            22.8554393680        4.2725818263       71.2439041002  TIP3      3316            0.0000000000
     18523      3380  TIP3      H1             23.5316905325        4.2063083480       70.5684484134  TIP3      3316            0.0000000000
     18524      3380  TIP3      H2             22.3421631467        5.0697914409       70.9958811852  TIP3      3316            0.0000000000
     18525      3381  TIP3      OH2            21.6354709902       -3.9038063599       71.8592273501  TIP3      3317            0.0000000000
     18526      3381  TIP3      H1             21.6135583325       -2.9640203437       71.5473592792  TIP3      3317            0.0000000000
     18527      3381  TIP3      H2             21.0656239487       -4.2588643393       71.1464052348  TIP3      3317            0.0000000000
     18528      3382  TIP3      OH2            22.0760813409       14.1612697138       59.5725704291  TIP3      3318            0.0000000000
     18529      3382  TIP3      H1             23.0302245838       14.2378494522       59.5660342985  TIP3      3318            0.0000000000
     18530      3382  TIP3      H2             21.8786076142       14.7064150322       58.7961340363  TIP3      3318            0.0000000000
     18531      3383  TIP3      OH2            15.5531912524        8.6917741744       59.0449298197  TIP3      3319            0.0000000000
     18532      3383  TIP3      H1             16.5194305482        8.8134037618       59.2135425888  TIP3      3319            0.0000000000
     18533      3383  TIP3      H2             15.6057761404        8.0779902204       58.2766221153  TIP3      3319            0.0000000000
     18534      3384  TIP3      OH2            14.3589717669       14.0801666338       63.9820703952  TIP3      3320            0.0000000000
     18535      3384  TIP3      H1             13.6278805198       13.5869710534       63.5469703573  TIP3      3320            0.0000000000
     18536      3384  TIP3      H2             14.6301202438       13.4425222449       64.6694237652  TIP3      3320            0.0000000000
     18537      3385  TIP3      OH2            15.1635437510       12.2230955049       65.8647244261  TIP3      3321            0.0000000000
     18538      3385  TIP3      H1             14.7945027624       11.3609553673       66.1076536573  TIP3      3321            0.0000000000
     18539      3385  TIP3      H2             15.4108547590       12.5738006350       66.7430364293  TIP3      3321            0.0000000000
     18540      3386  TIP3      OH2            15.2334663407        5.3251017031       68.3814719676  TIP3      3322            0.0000000000
     18541      3386  TIP3      H1             15.3812374195        5.2272358192       67.4167744880  TIP3      3322            0.0000000000
     18542      3386  TIP3      H2             16.1229641639        5.1020547147       68.7244683666  TIP3      3322            0.0000000000
     18543      3387  TIP3      OH2            16.0613699869       -1.0914019606       67.3768867479  TIP3      3323            0.0000000000
     18544      3387  TIP3      H1             16.5046374374       -1.9324659290       67.6123981456  TIP3      3323            0.0000000000
     18545      3387  TIP3      H2             16.6680527552       -0.4212676193       67.7208008090  TIP3      3323            0.0000000000
     18546      3388  TIP3      OH2            14.3066184391        1.9093394509       68.3386786346  TIP3      3324            0.0000000000
     18547      3388  TIP3      H1             14.9016366634        1.6433496203       67.6116232386  TIP3      3324            0.0000000000
     18548      3388  TIP3      H2             14.8080127928        2.6676975048       68.6815045045  TIP3      3324            0.0000000000
     18549      3389  TIP3      OH2            14.7084748291       -1.7949329223       62.5103269650  TIP3      3325            0.0000000000
     18550      3389  TIP3      H1             13.7624430694       -1.6825143813       62.3311673538  TIP3      3325            0.0000000000
     18551      3389  TIP3      H2             15.0998283023       -1.3319531898       61.7510009698  TIP3      3325            0.0000000000
     18552      3390  TIP3      OH2            14.6137489700       -3.1658183073       70.8496208949  TIP3      3326            0.0000000000
     18553      3390  TIP3      H1             13.8472215058       -3.5260571355       71.3313589289  TIP3      3326            0.0000000000
     18554      3390  TIP3      H2             14.1649846230       -2.5205143246       70.2770455668  TIP3      3326            0.0000000000
     18555      3391  TIP3      OH2            19.7280592116       11.0828852654       71.1883687834  TIP3      3327            0.0000000000
     18556      3391  TIP3      H1             19.4737090009       11.9699957364       70.9224772639  TIP3      3327            0.0000000000
     18557      3391  TIP3      H2             20.6811385894       11.0914084484       70.9804616675  TIP3      3327            0.0000000000
     18558      3392  TIP3      OH2            17.1736199945       14.3090192420       71.1163445132  TIP3      3328            0.0000000000
     18559      3392  TIP3      H1             16.4046859541       14.7873696727       70.7634974376  TIP3      3328            0.0000000000
     18560      3392  TIP3      H2             16.8996491284       14.0217579327       72.0126608022  TIP3      3328            0.0000000000
     18561      3393  TIP3      OH2            19.6749390531       13.8763353769       70.2405592476  TIP3      3329            0.0000000000
     18562      3393  TIP3      H1             18.8206189226       14.0369783207       70.7126786708  TIP3      3329            0.0000000000
     18563      3393  TIP3      H2             19.5640380551       14.4992957239       69.4978088413  TIP3      3329            0.0000000000
     18564      3394  TIP3      OH2            16.7136087010       12.8960607631       68.0889649342  TIP3      3330            0.0000000000
     18565      3394  TIP3      H1             16.6244084909       12.4471524226       68.9564103316  TIP3      3330            0.0000000000
     18566      3394  TIP3      H2             17.5480530393       12.5035678546       67.7548039262  TIP3      3330            0.0000000000
     18567      3395  TIP3      OH2            18.7794625319       11.6258043742       66.7926678380  TIP3      3331            0.0000000000
     18568      3395  TIP3      H1             18.6282838494       10.6929922531       67.0524363116  TIP3      3331            0.0000000000
     18569      3395  TIP3      H2             19.6434163911       11.7820342328       67.2183844357  TIP3      3331            0.0000000000
     18570      3396  TIP3      OH2            21.4155339752       12.0849422640       67.6569730245  TIP3      3332            0.0000000000
     18571      3396  TIP3      H1             21.4949343468       11.1393439089       67.4462300345  TIP3      3332            0.0000000000
     18572      3396  TIP3      H2             21.3489520532       12.0810441768       68.6202922774  TIP3      3332            0.0000000000
     18573      3397  TIP3      OH2            17.2259742640       -3.6373314163       64.6757991077  TIP3      3333            0.0000000000
     18574      3397  TIP3      H1             16.4099196644       -3.7848200506       64.1597074138  TIP3      3333            0.0000000000
     18575      3397  TIP3      H2             17.6247187714       -4.5247224960       64.5978711629  TIP3      3333            0.0000000000
     18576      3398  TIP3      OH2            15.9324108057       -3.8822549106       60.3513765840  TIP3      3334            0.0000000000
     18577      3398  TIP3      H1             16.4553763323       -3.2277598108       59.8544586033  TIP3      3334            0.0000000000
     18578      3398  TIP3      H2             15.3961519392       -3.3139495763       60.9274514521  TIP3      3334            0.0000000000
     18579      3399  TIP3      OH2            21.4901730849       -3.5335722482       64.5589465628  TIP3      3335            0.0000000000
     18580      3399  TIP3      H1             22.4360028313       -3.4072336859       64.3732635182  TIP3      3335            0.0000000000
     18581      3399  TIP3      H2             21.5449746632       -3.8810955255       65.4552668249  TIP3      3335            0.0000000000
     18582      3400  TIP3      OH2            15.7193176309       12.0773116416       61.5294705415  TIP3      3336            0.0000000000
     18583      3400  TIP3      H1             15.2005327003       12.0541787198       60.7112445927  TIP3      3336            0.0000000000
     18584      3400  TIP3      H2             15.9441750251       13.0177697966       61.5457681953  TIP3      3336            0.0000000000
     18585      3401  TIP3      OH2            17.7754216229       -1.9316205579       58.8958784056  TIP3      3337            0.0000000000
     18586      3401  TIP3      H1             18.3252878851       -2.5277671611       58.3646989502  TIP3      3337            0.0000000000
     18587      3401  TIP3      H2             18.4394363023       -1.5838496017       59.5238067278  TIP3      3337            0.0000000000
     18588      3402  TIP3      OH2            22.3984718047       -1.5423184581       60.9484868582  TIP3      3338            0.0000000000
     18589      3402  TIP3      H1             22.7936739260       -2.2789781501       61.4388488539  TIP3      3338            0.0000000000
     18590      3402  TIP3      H2             22.7257681247       -0.7864582953       61.4472726769  TIP3      3338            0.0000000000
     18591      3403  TIP3      OH2            17.5535654618       13.1270900741       58.2343389681  TIP3      3339            0.0000000000
     18592      3403  TIP3      H1             17.3479659025       13.3117774929       59.1695187500  TIP3      3339            0.0000000000
     18593      3403  TIP3      H2             18.3148386515       12.5380177831       58.4613672493  TIP3      3339            0.0000000000
     18594      3404  TIP3      OH2           -20.2768352479       23.1739448853       69.6965998400  TIP3      3340            0.0000000000
     18595      3404  TIP3      H1            -20.0610261903       22.5276115245       70.3858954935  TIP3      3340            0.0000000000
     18596      3404  TIP3      H2            -19.5966039494       23.8566159038       69.7651704077  TIP3      3340            0.0000000000
     18597      3405  TIP3      OH2           -22.6006524626       21.3648243720       63.4494486749  TIP3      3341            0.0000000000
     18598      3405  TIP3      H1            -23.0731294619       22.1950318327       63.5172113870  TIP3      3341            0.0000000000
     18599      3405  TIP3      H2            -23.2626724229       20.7538148257       63.1510168215  TIP3      3341            0.0000000000
     18600      3406  TIP3      OH2            -5.6070906649       17.6844784730       69.2284636210  TIP3      3342            0.0000000000
     18601      3406  TIP3      H1             -5.4441933849       18.2691359106       69.9933819711  TIP3      3342            0.0000000000
     18602      3406  TIP3      H2             -5.0432123377       18.1101510758       68.5653308789  TIP3      3342            0.0000000000
     18603      3407  TIP3      OH2           -11.0645039154       20.4944949173       68.8117924455  TIP3      3343            0.0000000000
     18604      3407  TIP3      H1            -10.8889109514       19.5411899235       68.8255147776  TIP3      3343            0.0000000000
     18605      3407  TIP3      H2            -11.1488276489       20.6728392532       67.8577687649  TIP3      3343            0.0000000000
     18606      3408  TIP3      OH2           -17.9559218549       18.5975395784       66.0485028848  TIP3      3344            0.0000000000
     18607      3408  TIP3      H1            -17.8380575169       19.4224090783       65.5371938650  TIP3      3344            0.0000000000
     18608      3408  TIP3      H2            -18.3249715663       18.0184897987       65.3497463523  TIP3      3344            0.0000000000
     18609      3409  TIP3      OH2           -10.1954940246       18.6631842041       64.3973773631  TIP3      3345            0.0000000000
     18610      3409  TIP3      H1             -9.5732634897       18.3292902051       65.0827464115  TIP3      3345            0.0000000000
     18611      3409  TIP3      H2             -9.6013466002       19.2485038471       63.9067250917  TIP3      3345            0.0000000000
     18612      3410  TIP3      OH2           -21.2296073745       20.9578689870       66.6939116919  TIP3      3346            0.0000000000
     18613      3410  TIP3      H1            -20.6058805195       20.3969599324       67.1873057446  TIP3      3346            0.0000000000
     18614      3410  TIP3      H2            -21.1567778297       20.6013116051       65.7993426599  TIP3      3346            0.0000000000
     18615      3411  TIP3      OH2           -16.2167716542       22.3297630019       66.1598645912  TIP3      3347            0.0000000000
     18616      3411  TIP3      H1            -15.4785101418       21.7505625820       66.4124388163  TIP3      3347            0.0000000000
     18617      3411  TIP3      H2            -16.7014667280       21.7825169200       65.5115114295  TIP3      3347            0.0000000000
     18618      3412  TIP3      OH2            -5.0994071549       19.1408290702       71.5425479955  TIP3      3348            0.0000000000
     18619      3412  TIP3      H1             -5.7836083420       19.8218257627       71.3335321715  TIP3      3348            0.0000000000
     18620      3412  TIP3      H2             -5.2783707983       18.9788727550       72.4713943352  TIP3      3348            0.0000000000
     18621      3413  TIP3      OH2           -19.0583750197       17.4501454940       70.0804419675  TIP3      3349            0.0000000000
     18622      3413  TIP3      H1            -19.2934817841       18.0139332910       69.3146732077  TIP3      3349            0.0000000000
     18623      3413  TIP3      H2            -19.7705518251       17.6944066108       70.7145211360  TIP3      3349            0.0000000000
     18624      3414  TIP3      OH2            -8.3589528205       18.0016100027       66.4083275284  TIP3      3350            0.0000000000
     18625      3414  TIP3      H1             -8.5959358691       17.2561604290       66.9671468971  TIP3      3350            0.0000000000
     18626      3414  TIP3      H2             -7.7249496927       18.4755121176       66.9834355087  TIP3      3350            0.0000000000
     18627      3415  TIP3      OH2           -19.5102470369       19.3442004838       68.0754090342  TIP3      3351            0.0000000000
     18628      3415  TIP3      H1            -18.8533075259       19.9891037514       68.3977371982  TIP3      3351            0.0000000000
     18629      3415  TIP3      H2            -18.9843505497       18.9506080070       67.3316092884  TIP3      3351            0.0000000000
     18630      3416  TIP3      OH2            -8.1236244175       16.7302087081       70.0725899194  TIP3      3352            0.0000000000
     18631      3416  TIP3      H1             -8.7873914859       17.4011343795       69.8673173237  TIP3      3352            0.0000000000
     18632      3416  TIP3      H2             -7.3296953306       17.1112750482       69.6404564551  TIP3      3352            0.0000000000
     18633      3417  TIP3      OH2           -15.1299574574       14.8283205989       67.4911385800  TIP3      3353            0.0000000000
     18634      3417  TIP3      H1            -15.2865030632       13.8622014763       67.4766835732  TIP3      3353            0.0000000000
     18635      3417  TIP3      H2            -15.9955961454       15.1536397468       67.8304644870  TIP3      3353            0.0000000000
     18636      3418  TIP3      OH2           -12.7532143496       22.0979780975       58.9824088558  TIP3      3354            0.0000000000
     18637      3418  TIP3      H1            -12.0559115956       22.1944450749       59.6654028027  TIP3      3354            0.0000000000
     18638      3418  TIP3      H2            -12.3962947756       21.3973163362       58.4342751957  TIP3      3354            0.0000000000
     18639      3419  TIP3      OH2            -5.6076194214       22.9538364825       70.2384215265  TIP3      3355            0.0000000000
     18640      3419  TIP3      H1             -6.1748841626       23.7344293334       70.2096171951  TIP3      3355            0.0000000000
     18641      3419  TIP3      H2             -4.9577464976       23.1643545285       69.5470178130  TIP3      3355            0.0000000000
     18642      3420  TIP3      OH2            -9.4266701987       22.0394694358       72.1105273314  TIP3      3356            0.0000000000
     18643      3420  TIP3      H1             -9.3778879168       22.8969427940       72.5268485674  TIP3      3356            0.0000000000
     18644      3420  TIP3      H2            -10.0383626424       22.2213409482       71.3603321475  TIP3      3356            0.0000000000
     18645      3421  TIP3      OH2           -17.1714621647      -23.8485713885       68.7276851014  TIP3      3357            0.0000000000
     18646      3421  TIP3      H1            -16.9840535048      -23.6339617494       67.7888821542  TIP3      3357            0.0000000000
     18647      3421  TIP3      H2            -17.2051795730      -22.9479454103       69.0755812918  TIP3      3357            0.0000000000
     18648      3422  TIP3      OH2           -10.4856756443       22.8141238605       60.3564381776  TIP3      3358            0.0000000000
     18649      3422  TIP3      H1            -10.1219800885       23.0152444968       61.2333428793  TIP3      3358            0.0000000000
     18650      3422  TIP3      H2            -10.1373132479       23.5379775614       59.8294390707  TIP3      3358            0.0000000000
     18651      3423  TIP3      OH2            -6.7193887541       14.7455880448       60.5688179656  TIP3      3359            0.0000000000
     18652      3423  TIP3      H1             -7.6781807156       14.8353296333       60.7653266482  TIP3      3359            0.0000000000
     18653      3423  TIP3      H2             -6.5353229917       15.5820555230       60.0994000470  TIP3      3359            0.0000000000
     18654      3424  TIP3      OH2           -17.6859624365       15.7506745565       68.2149171581  TIP3      3360            0.0000000000
     18655      3424  TIP3      H1            -18.5982946995       15.5964359995       67.8698776967  TIP3      3360            0.0000000000
     18656      3424  TIP3      H2            -17.8488993749       16.5279093919       68.7754509665  TIP3      3360            0.0000000000
     18657      3425  TIP3      OH2           -13.0835511250       15.4372693389       71.8250917894  TIP3      3361            0.0000000000
     18658      3425  TIP3      H1            -12.8099520912       14.8292638883       72.5104479793  TIP3      3361            0.0000000000
     18659      3425  TIP3      H2            -14.0608343421       15.2576794306       71.7783204993  TIP3      3361            0.0000000000
     18660      3426  TIP3      OH2           -13.3921070242       17.9319859693       58.9555863318  TIP3      3362            0.0000000000
     18661      3426  TIP3      H1            -13.7531621385       17.9235323269       59.8560688995  TIP3      3362            0.0000000000
     18662      3426  TIP3      H2            -13.7585934825       17.0900496672       58.6307009599  TIP3      3362            0.0000000000
     18663      3427  TIP3      OH2           -17.6614464863       20.5292442894       69.6291543774  TIP3      3363            0.0000000000
     18664      3427  TIP3      H1            -18.4370068739       20.7148473252       70.1863114091  TIP3      3363            0.0000000000
     18665      3427  TIP3      H2            -17.5586697271       21.4029504103       69.1735282400  TIP3      3363            0.0000000000
     18666      3428  TIP3      OH2           -17.6452350134       20.7296819525       64.3971107237  TIP3      3364            0.0000000000
     18667      3428  TIP3      H1            -18.6064631669       20.5611164721       64.2347753941  TIP3      3364            0.0000000000
     18668      3428  TIP3      H2            -17.3066380992       20.4882350740       63.5134467101  TIP3      3364            0.0000000000
     18669      3429  TIP3      OH2           -11.9888776446       21.4009721126       63.2487134661  TIP3      3365            0.0000000000
     18670      3429  TIP3      H1            -12.6143224263       22.0164896690       62.8414430779  TIP3      3365            0.0000000000
     18671      3429  TIP3      H2            -11.4622735004       21.0763382255       62.4916208294  TIP3      3365            0.0000000000
     18672      3430  TIP3      OH2           -11.1678462190       20.7605162542       66.0357547332  TIP3      3366            0.0000000000
     18673      3430  TIP3      H1            -11.4149659080       21.2754957860       65.2499972353  TIP3      3366            0.0000000000
     18674      3430  TIP3      H2            -10.9947033465       19.8956941466       65.6110553668  TIP3      3366            0.0000000000
     18675      3431  TIP3      OH2           -19.9374418430       20.9464307015       71.2006950840  TIP3      3367            0.0000000000
     18676      3431  TIP3      H1            -19.9611582999       21.3008355949       72.1058684266  TIP3      3367            0.0000000000
     18677      3431  TIP3      H2            -20.4146913208       20.1104105907       71.3488497541  TIP3      3367            0.0000000000
     18678      3432  TIP3      OH2           -16.6588000910       18.3328938431       58.0355970237  TIP3      3368            0.0000000000
     18679      3432  TIP3      H1            -17.0788138431       17.9738823193       58.8427982850  TIP3      3368            0.0000000000
     18680      3432  TIP3      H2            -17.3785949422       18.7765716189       57.5761631222  TIP3      3368            0.0000000000
     18681      3433  TIP3      OH2           -22.1111121928       18.1543992638       64.9707918992  TIP3      3369            0.0000000000
     18682      3433  TIP3      H1            -22.4075932625       17.9232055252       65.8657336342  TIP3      3369            0.0000000000
     18683      3433  TIP3      H2            -22.7195686824       17.6395158790       64.4287336572  TIP3      3369            0.0000000000
     18684      3434  TIP3      OH2           -22.0268773328       18.8608138344       60.6843696687  TIP3      3370            0.0000000000
     18685      3434  TIP3      H1            -21.5143715768       19.3247226338       59.9819893805  TIP3      3370            0.0000000000
     18686      3434  TIP3      H2            -22.7610185771       19.4618510306       60.7651297250  TIP3      3370            0.0000000000
     18687      3435  TIP3      OH2           -11.8282435115       22.3646539826       70.6964552214  TIP3      3371            0.0000000000
     18688      3435  TIP3      H1            -11.5972662357       21.7833984084       69.9410785006  TIP3      3371            0.0000000000
     18689      3435  TIP3      H2            -12.3825516667       21.7571902387       71.2226602112  TIP3      3371            0.0000000000
     18690      3436  TIP3      OH2           -15.0758407727       18.3701066436       65.3960613212  TIP3      3372            0.0000000000
     18691      3436  TIP3      H1            -16.0107471311       18.3740237809       65.6737592733  TIP3      3372            0.0000000000
     18692      3436  TIP3      H2            -14.6251884681       18.2082808516       66.2392064571  TIP3      3372            0.0000000000
     18693      3437  TIP3      OH2           -20.1355650198       19.9337535612       64.2143124934  TIP3      3373            0.0000000000
     18694      3437  TIP3      H1            -21.0778901536       20.0532385883       63.9821972641  TIP3      3373            0.0000000000
     18695      3437  TIP3      H2            -19.9958985966       19.0204606861       63.9034180065  TIP3      3373            0.0000000000
     18696      3438  TIP3      OH2           -16.6503290201       19.9766492247       61.8822010977  TIP3      3374            0.0000000000
     18697      3438  TIP3      H1            -15.6954054364       20.0737823140       62.0431372946  TIP3      3374            0.0000000000
     18698      3438  TIP3      H2            -16.8623250193       20.6558244499       61.2107491789  TIP3      3374            0.0000000000
     18699      3439  TIP3      OH2           -10.6739065650       17.5757402161       68.6457447204  TIP3      3375            0.0000000000
     18700      3439  TIP3      H1            -11.3704989723       17.6561966570       69.3284589129  TIP3      3375            0.0000000000
     18701      3439  TIP3      H2            -11.1833613453       17.3357485061       67.8610480082  TIP3      3375            0.0000000000
     18702      3440  TIP3      OH2           -18.0011025298       21.1583060189       59.4351033527  TIP3      3376            0.0000000000
     18703      3440  TIP3      H1            -18.4470845601       20.7379452275       58.6919187635  TIP3      3376            0.0000000000
     18704      3440  TIP3      H2            -17.1205374317       21.3642627772       59.0624328101  TIP3      3376            0.0000000000
     18705      3441  TIP3      OH2           -13.9125177375       21.0720120461       67.2294620820  TIP3      3377            0.0000000000
     18706      3441  TIP3      H1            -13.1955838120       20.6079738844       66.7862439315  TIP3      3377            0.0000000000
     18707      3441  TIP3      H2            -13.9682844343       20.6124108178       68.0760267093  TIP3      3377            0.0000000000
     18708      3442  TIP3      OH2           -18.8245511201       17.2635465872       63.7281634756  TIP3      3378            0.0000000000
     18709      3442  TIP3      H1            -19.1314611312       16.3439920374       63.7635403160  TIP3      3378            0.0000000000
     18710      3442  TIP3      H2            -18.0200586697       17.1818150409       63.1991355513  TIP3      3378            0.0000000000
     18711      3443  TIP3      OH2           -15.1747807785       19.4226522079       69.7488259082  TIP3      3379            0.0000000000
     18712      3443  TIP3      H1            -15.9660698550       19.9942854795       69.7818232576  TIP3      3379            0.0000000000
     18713      3443  TIP3      H2            -14.5924488376       19.8057790485       70.4263456626  TIP3      3379            0.0000000000
     18714      3444  TIP3      OH2           -10.7375003610       18.5034055928       59.5990923452  TIP3      3380            0.0000000000
     18715      3444  TIP3      H1            -11.6885809005       18.6400047310       59.4330233771  TIP3      3380            0.0000000000
     18716      3444  TIP3      H2            -10.4272529977       19.3709072621       59.9209049788  TIP3      3380            0.0000000000
     18717      3445  TIP3      OH2           -10.0365867635       20.4506470752       61.2676858762  TIP3      3381            0.0000000000
     18718      3445  TIP3      H1             -9.1420610334       20.2187498258       61.6079530850  TIP3      3381            0.0000000000
     18719      3445  TIP3      H2             -9.8712757436       21.2148204003       60.6875290862  TIP3      3381            0.0000000000
     18720      3446  TIP3      OH2            -5.1833740133       20.5274167855       61.0171674797  TIP3      3382            0.0000000000
     18721      3446  TIP3      H1             -5.6868375260       20.2361742713       60.2305475556  TIP3      3382            0.0000000000
     18722      3446  TIP3      H2             -5.1088015190       21.4696665998       60.7936909759  TIP3      3382            0.0000000000
     18723      3447  TIP3      OH2           -21.3518883099      -23.5262985130       58.7570091464  TIP3      3383            0.0000000000
     18724      3447  TIP3      H1            -20.6721861514      -23.1068671191       59.3124099257  TIP3      3383            0.0000000000
     18725      3447  TIP3      H2            -22.1157094082      -23.2493691287       59.3053253366  TIP3      3383            0.0000000000
     18726      3448  TIP3      OH2           -20.9274727128       18.2546700623       71.8308811463  TIP3      3384            0.0000000000
     18727      3448  TIP3      H1            -21.8518440863       18.4749968735       71.9503313082  TIP3      3384            0.0000000000
     18728      3448  TIP3      H2            -20.8380412171       17.5036873893       72.4570986556  TIP3      3384            0.0000000000
     18729      3449  TIP3      OH2           -12.0729085208       17.8812167427       70.9564749027  TIP3      3385            0.0000000000
     18730      3449  TIP3      H1            -11.4394027039       18.0552537812       71.6498288283  TIP3      3385            0.0000000000
     18731      3449  TIP3      H2            -12.4967218570       17.0494081997       71.2381207071  TIP3      3385            0.0000000000
     18732      3450  TIP3      OH2           -11.3672298081       17.5273441674       62.0997756302  TIP3      3386            0.0000000000
     18733      3450  TIP3      H1            -11.1304786410       17.9445310089       61.2497477747  TIP3      3386            0.0000000000
     18734      3450  TIP3      H2            -10.7884909615       17.9995615474       62.7184810711  TIP3      3386            0.0000000000
     18735      3451  TIP3      OH2           -14.1135764508       19.2648389846       62.8942521284  TIP3      3387            0.0000000000
     18736      3451  TIP3      H1            -13.3808757594       19.8917407671       62.9553081116  TIP3      3387            0.0000000000
     18737      3451  TIP3      H2            -14.4293908930       19.1713446197       63.8164398262  TIP3      3387            0.0000000000
     18738      3452  TIP3      OH2           -13.3145105996       20.4067755263       71.9990393883  TIP3      3388            0.0000000000
     18739      3452  TIP3      H1            -13.7061083296       20.7051264605       72.8432763078  TIP3      3388            0.0000000000
     18740      3452  TIP3      H2            -13.0599093505       19.5012892721       72.1842551970  TIP3      3388            0.0000000000
     18741      3453  TIP3      OH2           -13.2967520541       16.3247562552       63.7393235081  TIP3      3389            0.0000000000
     18742      3453  TIP3      H1            -13.6223219555       16.9668093914       64.3925060610  TIP3      3389            0.0000000000
     18743      3453  TIP3      H2            -12.5850267552       16.8753171696       63.3263435211  TIP3      3389            0.0000000000
     18744      3454  TIP3      OH2           -17.6048126403       17.4350275558       60.4736808291  TIP3      3390            0.0000000000
     18745      3454  TIP3      H1            -17.6751591913       18.3260144360       60.8747457986  TIP3      3390            0.0000000000
     18746      3454  TIP3      H2            -16.7004522109       17.1910477449       60.7579911423  TIP3      3390            0.0000000000
     18747      3455  TIP3      OH2            -8.7901987037       21.7755255800       66.7753845006  TIP3      3391            0.0000000000
     18748      3455  TIP3      H1             -9.6917011084       21.4213183314       66.7600722543  TIP3      3391            0.0000000000
     18749      3455  TIP3      H2             -8.3651149753       21.2224313270       67.4628017600  TIP3      3391            0.0000000000
     18750      3456  TIP3      OH2           -21.1283599159       20.5087927094       58.6119082898  TIP3      3392            0.0000000000
     18751      3456  TIP3      H1            -21.0971340943       21.4552744525       58.8397701679  TIP3      3392            0.0000000000
     18752      3456  TIP3      H2            -22.0180873950       20.3856650062       58.2679492703  TIP3      3392            0.0000000000
     18753      3457  TIP3      OH2           -20.2029833266       15.3231638041       67.4615315236  TIP3      3393            0.0000000000
     18754      3457  TIP3      H1            -20.3730790546       15.3739610890       66.4915692781  TIP3      3393            0.0000000000
     18755      3457  TIP3      H2            -20.6595851288       14.4830330280       67.6713938750  TIP3      3393            0.0000000000
     18756      3458  TIP3      OH2           -15.5409263195       22.0925343635       58.6889817284  TIP3      3394            0.0000000000
     18757      3458  TIP3      H1            -15.7033588211       22.1327032639       57.7192166685  TIP3      3394            0.0000000000
     18758      3458  TIP3      H2            -14.6009522369       22.3586949458       58.7008767153  TIP3      3394            0.0000000000
     18759      3459  TIP3      OH2           -16.5718965394       17.3071661611       70.8305640579  TIP3      3395            0.0000000000
     18760      3459  TIP3      H1            -16.0531761846       18.0435726550       70.4506411013  TIP3      3395            0.0000000000
     18761      3459  TIP3      H2            -17.4902889336       17.5919492688       70.6579103910  TIP3      3395            0.0000000000
     18762      3460  TIP3      OH2           -14.7383365617      -24.0703366912       70.7930689078  TIP3      3396            0.0000000000
     18763      3460  TIP3      H1            -13.8106585623      -23.8816751250       70.5881760550  TIP3      3396            0.0000000000
     18764      3460  TIP3      H2            -15.0932027808      -23.2058656719       71.0620861462  TIP3      3396            0.0000000000
     18765      3461  TIP3      OH2           -15.7296377320       15.0338634315       71.7333626212  TIP3      3397            0.0000000000
     18766      3461  TIP3      H1            -15.9106013845       15.9601320523       71.4356540490  TIP3      3397            0.0000000000
     18767      3461  TIP3      H2            -16.4395138717       14.6439871360       71.1791027588  TIP3      3397            0.0000000000
     18768      3462  TIP3      OH2            -6.6773529732       20.6026048804       58.6371359408  TIP3      3398            0.0000000000
     18769      3462  TIP3      H1             -6.5393492403       21.2623697147       57.9431119739  TIP3      3398            0.0000000000
     18770      3462  TIP3      H2             -6.7977315191       19.7741714302       58.1253967323  TIP3      3398            0.0000000000
     18771      3463  TIP3      OH2            -7.4654231546       22.0665551584       64.2794621749  TIP3      3399            0.0000000000
     18772      3463  TIP3      H1             -7.6501436054       21.1183471804       64.2461917611  TIP3      3399            0.0000000000
     18773      3463  TIP3      H2             -7.7418401442       22.2803475136       65.1885221137  TIP3      3399            0.0000000000
     18774      3464  TIP3      OH2            -7.3887730110       18.1399015918       57.7703951192  TIP3      3400            0.0000000000
     18775      3464  TIP3      H1             -6.8037492295       17.6809033043       58.4069672471  TIP3      3400            0.0000000000
     18776      3464  TIP3      H2             -8.2467908024       17.7096874815       57.9034458064  TIP3      3400            0.0000000000
     18777      3465  TIP3      OH2            -7.8787555749       19.7169999725       62.7678876827  TIP3      3401            0.0000000000
     18778      3465  TIP3      H1             -7.5808920430       18.7880841762       62.9108491105  TIP3      3401            0.0000000000
     18779      3465  TIP3      H2             -7.0429595622       20.0885851067       62.4510808803  TIP3      3401            0.0000000000
     18780      3466  TIP3      OH2            -7.1632939665       20.0731236120       68.2264554526  TIP3      3402            0.0000000000
     18781      3466  TIP3      H1             -6.2374349237       20.4028257999       68.1780403804  TIP3      3402            0.0000000000
     18782      3466  TIP3      H2             -7.3774692717       20.3726999473       69.1303030039  TIP3      3402            0.0000000000
     18783      3467  TIP3      OH2            -7.1334594590       20.9240290809       70.8856650347  TIP3      3403            0.0000000000
     18784      3467  TIP3      H1             -8.0158700818       21.1843536667       71.2394262516  TIP3      3403            0.0000000000
     18785      3467  TIP3      H2             -6.6485772192       21.7655995270       70.6923761965  TIP3      3403            0.0000000000
     18786      3468  TIP3      OH2            -7.1542446077       16.9694356040       62.8099534868  TIP3      3404            0.0000000000
     18787      3468  TIP3      H1             -6.9055355534       16.5477071587       63.6661307303  TIP3      3404            0.0000000000
     18788      3468  TIP3      H2             -7.7232099450       16.2959190071       62.3851676714  TIP3      3404            0.0000000000
     18789      3469  TIP3      OH2           -21.7516913751       17.7399771499       67.6206776381  TIP3      3405            0.0000000000
     18790      3469  TIP3      H1            -21.2268598443       16.9167845625       67.6554781762  TIP3      3405            0.0000000000
     18791      3469  TIP3      H2            -21.0880160962       18.4214794399       67.7800723244  TIP3      3405            0.0000000000
     18792      3470  TIP3      OH2           -23.4509870566       21.0188338133       68.1241187209  TIP3      3406            0.0000000000
     18793      3470  TIP3      H1            -22.7708360715       20.5155645550       67.6365460677  TIP3      3406            0.0000000000
     18794      3470  TIP3      H2            -22.8756760854       21.6510973965       68.5781606752  TIP3      3406            0.0000000000
     18795      3471  TIP3      OH2            -5.3332599739       16.9731651454       59.3784021235  TIP3      3407            0.0000000000
     18796      3471  TIP3      H1             -4.9417497324       16.2664175035       58.8155940695  TIP3      3407            0.0000000000
     18797      3471  TIP3      H2             -4.6030748861       17.6060719546       59.4256750122  TIP3      3407            0.0000000000
     18798      3472  TIP3      OH2           -22.6415264897       16.8906800180       62.7076791096  TIP3      3408            0.0000000000
     18799      3472  TIP3      H1            -23.5793458158       17.0971333541       62.7937347709  TIP3      3408            0.0000000000
     18800      3472  TIP3      H2            -22.3510837139       17.4758683589       61.9699743652  TIP3      3408            0.0000000000
     18801      3473  TIP3      OH2            23.8965750977       15.7184574195       70.6726600063  TIP3      3409            0.0000000000
     18802      3473  TIP3      H1             23.2358711594       15.3868596655       71.3060573710  TIP3      3409            0.0000000000
     18803      3473  TIP3      H2             23.3933762826       16.4154553495       70.2320775830  TIP3      3409            0.0000000000
     18804      3474  TIP3      OH2           -12.9032437306       16.6069125103       66.8145701587  TIP3      3410            0.0000000000
     18805      3474  TIP3      H1            -13.5878446083       15.9819079391       67.1107226802  TIP3      3410            0.0000000000
     18806      3474  TIP3      H2            -12.3618748472       16.0538020978       66.2428414984  TIP3      3410            0.0000000000
     18807      3475  TIP3      OH2            -7.7564535324       14.6162932530       66.8385100601  TIP3      3411            0.0000000000
     18808      3475  TIP3      H1             -7.1573636125       15.2485022412       66.3694368540  TIP3      3411            0.0000000000
     18809      3475  TIP3      H2             -8.6461909292       14.9990292690       66.6732848023  TIP3      3411            0.0000000000
     18810      3476  TIP3      OH2            -6.1042857047       15.9205296991       65.1335683701  TIP3      3412            0.0000000000
     18811      3476  TIP3      H1             -5.4223344012       15.3287510832       64.7401077534  TIP3      3412            0.0000000000
     18812      3476  TIP3      H2             -5.5747721929       16.7411067198       65.2671860623  TIP3      3412            0.0000000000
     18813      3477  TIP3      OH2           -20.5211947826       15.1769809967       64.6952309833  TIP3      3413            0.0000000000
     18814      3477  TIP3      H1            -21.2973000970       15.0504980522       64.1158235563  TIP3      3413            0.0000000000
     18815      3477  TIP3      H2            -20.0505884263       14.3274183610       64.5796705131  TIP3      3413            0.0000000000
     18816      3478  TIP3      OH2           -21.7280116287       14.9499150532       60.4012678215  TIP3      3414            0.0000000000
     18817      3478  TIP3      H1            -21.2945611055       15.6048534172       59.8219306836  TIP3      3414            0.0000000000
     18818      3478  TIP3      H2            -22.2854943591       15.5463209269       60.9162012679  TIP3      3414            0.0000000000
     18819      3479  TIP3      OH2           -16.1020891974       15.1489606589       64.4733005192  TIP3      3415            0.0000000000
     18820      3479  TIP3      H1            -15.2015852862       15.4910715860       64.3494780738  TIP3      3415            0.0000000000
     18821      3479  TIP3      H2            -16.0919839612       14.9361679693       65.4080564969  TIP3      3415            0.0000000000
     18822      3480  TIP3      OH2           -10.3163405287       15.1598692393       66.0690728923  TIP3      3416            0.0000000000
     18823      3480  TIP3      H1            -10.4080400723       15.2978965755       65.1210653034  TIP3      3416            0.0000000000
     18824      3480  TIP3      H2            -10.7199407119       14.2704900341       66.1971106077  TIP3      3416            0.0000000000
     18825      3481  TIP3      OH2            -9.0952267575       15.1896683765       61.7628515366  TIP3      3417            0.0000000000
     18826      3481  TIP3      H1             -9.8529089674       15.7772706138       61.6229935451  TIP3      3417            0.0000000000
     18827      3481  TIP3      H2             -9.5223622037       14.3433352878       62.0325998928  TIP3      3417            0.0000000000
     18828      3482  TIP3      OH2           -19.9344994940       16.9363138904       58.9011098138  TIP3      3418            0.0000000000
     18829      3482  TIP3      H1            -19.4132795620       16.3189781745       58.3664893460  TIP3      3418            0.0000000000
     18830      3482  TIP3      H2            -19.2584820922       17.2031285562       59.5464151725  TIP3      3418            0.0000000000
     18831      3483  TIP3      OH2           -14.9515636621       17.1360405683       61.3075874624  TIP3      3419            0.0000000000
     18832      3483  TIP3      H1            -14.6580204330       16.5878731964       62.0542463358  TIP3      3419            0.0000000000
     18833      3483  TIP3      H2            -14.8364387064       18.0163836919       61.7216453433  TIP3      3419            0.0000000000
     18834      3484  TIP3      OH2            -1.4161110043       23.1939987752       69.6695313209  TIP3      3420            0.0000000000
     18835      3484  TIP3      H1             -1.2268481535       22.5368806981       70.3576150853  TIP3      3420            0.0000000000
     18836      3484  TIP3      H2             -0.7276783671       23.8544200455       69.7968069585  TIP3      3420            0.0000000000
     18837      3485  TIP3      OH2            -3.7648843202       21.4049301195       63.4634977435  TIP3      3421            0.0000000000
     18838      3485  TIP3      H1             -4.3037596414       22.1996354094       63.4920384540  TIP3      3421            0.0000000000
     18839      3485  TIP3      H2             -4.3717832206       20.7786582439       63.0370601760  TIP3      3421            0.0000000000
     18840      3486  TIP3      OH2            13.2598072062       17.6950109618       69.2211685083  TIP3      3422            0.0000000000
     18841      3486  TIP3      H1             13.4123493332       18.2681946193       69.9952600458  TIP3      3422            0.0000000000
     18842      3486  TIP3      H2             13.8152965783       18.1480407171       68.5656106046  TIP3      3422            0.0000000000
     18843      3487  TIP3      OH2             7.7874044592       20.4942605512       68.8143577546  TIP3      3423            0.0000000000
     18844      3487  TIP3      H1              7.9709003982       19.5426663957       68.8183471176  TIP3      3423            0.0000000000
     18845      3487  TIP3      H2              7.7061165182       20.6752953486       67.8587200956  TIP3      3423            0.0000000000
     18846      3488  TIP3      OH2             0.8989701785       18.5933188147       66.0406587318  TIP3      3424            0.0000000000
     18847      3488  TIP3      H1              1.0346725738       19.4166764003       65.5349525426  TIP3      3424            0.0000000000
     18848      3488  TIP3      H2              0.5209476892       18.0158495418       65.3451234618  TIP3      3424            0.0000000000
     18849      3489  TIP3      OH2             8.6607145641       18.6617485082       64.3964384491  TIP3      3425            0.0000000000
     18850      3489  TIP3      H1              9.2824522037       18.3292514812       65.0828878331  TIP3      3425            0.0000000000
     18851      3489  TIP3      H2              9.2538474497       19.2493870061       63.9070929687  TIP3      3425            0.0000000000
     18852      3490  TIP3      OH2            -2.4986347134       20.9720647996       66.7233827547  TIP3      3426            0.0000000000
     18853      3490  TIP3      H1             -1.8205517487       20.4646477567       67.2173382510  TIP3      3426            0.0000000000
     18854      3490  TIP3      H2             -2.3433455633       20.6377065327       65.8289763595  TIP3      3426            0.0000000000
     18855      3491  TIP3      OH2             2.6381329853       22.3306912318       66.1572709689  TIP3      3427            0.0000000000
     18856      3491  TIP3      H1              3.3770625855       21.7517125270       66.4143995884  TIP3      3427            0.0000000000
     18857      3491  TIP3      H2              2.1542642950       21.7786952337       65.5152668295  TIP3      3427            0.0000000000
     18858      3492  TIP3      OH2            13.7562499820       19.1450817701       71.5482138266  TIP3      3428            0.0000000000
     18859      3492  TIP3      H1             13.0742824960       19.8233910870       71.3336430076  TIP3      3428            0.0000000000
     18860      3492  TIP3      H2             13.5759647152       18.9844355037       72.4780996412  TIP3      3428            0.0000000000
     18861      3493  TIP3      OH2            -0.2369360034       17.4280659503       70.0683232877  TIP3      3429            0.0000000000
     18862      3493  TIP3      H1             -0.4616855078       18.0155637066       69.3168674590  TIP3      3429            0.0000000000
     18863      3493  TIP3      H2             -0.9144991099       17.7015880871       70.7267116214  TIP3      3429            0.0000000000
     18864      3494  TIP3      OH2            10.4977088424       18.0004129921       66.4085473464  TIP3      3430            0.0000000000
     18865      3494  TIP3      H1             10.2546446931       17.2550262264       66.9652603346  TIP3      3430            0.0000000000
     18866      3494  TIP3      H2             11.1263935693       18.4696030648       66.9905870266  TIP3      3430            0.0000000000
     18867      3495  TIP3      OH2            -0.6374809979       19.3550124334       68.0486856628  TIP3      3431            0.0000000000
     18868      3495  TIP3      H1              0.0211422822       19.9958884477       68.3775344305  TIP3      3431            0.0000000000
     18869      3495  TIP3      H2             -0.1056176793       18.9336849058       67.3299559229  TIP3      3431            0.0000000000
     18870      3496  TIP3      OH2            10.7276808236       16.6920089194       70.0170364747  TIP3      3432            0.0000000000
     18871      3496  TIP3      H1             10.0628562689       17.3849176144       69.9242245898  TIP3      3432            0.0000000000
     18872      3496  TIP3      H2             11.5225641817       17.1165924945       69.6344902613  TIP3      3432            0.0000000000
     18873      3497  TIP3      OH2             3.7230038257       14.8310991902       67.4876309250  TIP3      3433            0.0000000000
     18874      3497  TIP3      H1              3.5668439674       13.8644734387       67.4769305107  TIP3      3433            0.0000000000
     18875      3497  TIP3      H2              2.8596132384       15.1549394430       67.8318338123  TIP3      3433            0.0000000000
     18876      3498  TIP3      OH2             6.1055843325       22.0956156536       58.9806937093  TIP3      3434            0.0000000000
     18877      3498  TIP3      H1              6.8015812227       22.1947813624       59.6647159206  TIP3      3434            0.0000000000
     18878      3498  TIP3      H2              6.4660165040       21.3935238223       58.4340228401  TIP3      3434            0.0000000000
     18879      3499  TIP3      OH2            13.2633068663       22.9905385994       70.2953255614  TIP3      3435            0.0000000000
     18880      3499  TIP3      H1             12.6795933826       23.7469468593       70.1820486822  TIP3      3435            0.0000000000
     18881      3499  TIP3      H2             13.8819523471       23.1253370584       69.5483120141  TIP3      3435            0.0000000000
     18882      3500  TIP3      OH2             9.4307875910       22.0364914620       72.1119631557  TIP3      3436            0.0000000000
     18883      3500  TIP3      H1              9.4799859112       22.8960876779       72.5242678907  TIP3      3436            0.0000000000
     18884      3500  TIP3      H2              8.8033036454       22.2148553727       71.3727381356  TIP3      3436            0.0000000000
     18885      3501  TIP3      OH2             1.6743845743      -23.8430536682       68.7233055406  TIP3      3437            0.0000000000
     18886      3501  TIP3      H1              1.8631153650      -23.6259987903       67.7863610540  TIP3      3437            0.0000000000
     18887      3501  TIP3      H2              1.6479659625      -22.9448362492       69.0748876079  TIP3      3437            0.0000000000
     18888      3502  TIP3      OH2             8.3714781810       22.8148351973       60.3600916489  TIP3      3438            0.0000000000
     18889      3502  TIP3      H1              8.7410014322       23.0160789863       61.2359479747  TIP3      3438            0.0000000000
     18890      3502  TIP3      H2              8.7183786403       23.5384658384       59.8322761871  TIP3      3438            0.0000000000
     18891      3503  TIP3      OH2            12.1379439559       14.7470262046       60.5666989627  TIP3      3439            0.0000000000
     18892      3503  TIP3      H1             11.1796136320       14.8353405681       60.7639735747  TIP3      3439            0.0000000000
     18893      3503  TIP3      H2             12.3220619049       15.5837553221       60.0973674386  TIP3      3439            0.0000000000
     18894      3504  TIP3      OH2             1.1546861601       15.7338602895       68.2216451859  TIP3      3440            0.0000000000
     18895      3504  TIP3      H1              0.2451660339       15.5905704474       67.8805325411  TIP3      3440            0.0000000000
     18896      3504  TIP3      H2              1.0183988326       16.5115256556       68.7873689895  TIP3      3440            0.0000000000
     18897      3505  TIP3      OH2             5.7461241129       15.4097083030       71.7483014950  TIP3      3441            0.0000000000
     18898      3505  TIP3      H1              6.1292841325       14.9371419984       72.4960149140  TIP3      3441            0.0000000000
     18899      3505  TIP3      H2              4.7778675962       15.2270991275       71.8159033200  TIP3      3441            0.0000000000
     18900      3506  TIP3      OH2             5.4644798509       17.9322209534       58.9563296573  TIP3      3442            0.0000000000
     18901      3506  TIP3      H1              5.1070271841       17.9230110298       59.8581449897  TIP3      3442            0.0000000000
     18902      3506  TIP3      H2              5.0967465256       17.0906618991       58.6316089553  TIP3      3442            0.0000000000
     18903      3507  TIP3      OH2             1.2028426415       20.5254512284       69.6290275469  TIP3      3443            0.0000000000
     18904      3507  TIP3      H1              0.4106251331       20.6758638234       70.1779226334  TIP3      3443            0.0000000000
     18905      3507  TIP3      H2              1.2703328213       21.4140128742       69.1974533181  TIP3      3443            0.0000000000
     18906      3508  TIP3      OH2             1.1845017713       20.7285591545       64.3992228411  TIP3      3444            0.0000000000
     18907      3508  TIP3      H1              0.2327966256       20.5509613122       64.2375370305  TIP3      3444            0.0000000000
     18908      3508  TIP3      H2              1.5516147260       20.5156215059       63.5189268804  TIP3      3444            0.0000000000
     18909      3509  TIP3      OH2             6.8649657311       21.4001368072       63.2482994236  TIP3      3445            0.0000000000
     18910      3509  TIP3      H1              6.2398261151       22.0149599836       62.8385430049  TIP3      3445            0.0000000000
     18911      3509  TIP3      H2              7.3945409744       21.0759605565       62.4930978900  TIP3      3445            0.0000000000
     18912      3510  TIP3      OH2             7.6815190633       20.7581719261       66.0349801228  TIP3      3446            0.0000000000
     18913      3510  TIP3      H1              7.4399570321       21.2753555985       65.2486924697  TIP3      3446            0.0000000000
     18914      3510  TIP3      H2              7.8609941557       19.8951038777       65.6099023009  TIP3      3446            0.0000000000
     18915      3511  TIP3      OH2            -1.0448171253       20.9514750620       71.2173737894  TIP3      3447            0.0000000000
     18916      3511  TIP3      H1             -1.0760149315       21.3091427533       72.1194535901  TIP3      3447            0.0000000000
     18917      3511  TIP3      H2             -1.5439441830       20.1276894530       71.3544762393  TIP3      3447            0.0000000000
     18918      3512  TIP3      OH2             2.1964035218       18.3258291299       58.0339510580  TIP3      3448            0.0000000000
     18919      3512  TIP3      H1              1.7793156028       17.9701642903       58.8445030589  TIP3      3448            0.0000000000
     18920      3512  TIP3      H2              1.4799412176       18.7848934264       57.5828823218  TIP3      3448            0.0000000000
     18921      3513  TIP3      OH2            -4.4559087379       18.0089125825       65.2264141520  TIP3      3449            0.0000000000
     18922      3513  TIP3      H1             -3.7654658723       18.0122402373       65.9193422968  TIP3      3449            0.0000000000
     18923      3513  TIP3      H2             -3.9986386083       17.6926271588       64.4317190514  TIP3      3449            0.0000000000
     18924      3514  TIP3      OH2            -3.2611788953       18.7293447514       60.5191681697  TIP3      3450            0.0000000000
     18925      3514  TIP3      H1             -2.7090118246       19.3323098706       59.9802412397  TIP3      3450            0.0000000000
     18926      3514  TIP3      H2             -3.9165938525       19.3835353420       60.8461335822  TIP3      3450            0.0000000000
     18927      3515  TIP3      OH2             7.0423465202       22.3591035564       70.7063212971  TIP3      3451            0.0000000000
     18928      3515  TIP3      H1              7.2622443173       21.7822948948       69.9447242037  TIP3      3451            0.0000000000
     18929      3515  TIP3      H2              6.4720724566       21.7577621867       71.2229984683  TIP3      3451            0.0000000000
     18930      3516  TIP3      OH2             3.7751112860       18.3722769503       65.3968222100  TIP3      3452            0.0000000000
     18931      3516  TIP3      H1              2.8400653628       18.3636867831       65.6762186683  TIP3      3452            0.0000000000
     18932      3516  TIP3      H2              4.2288996111       18.2086230138       66.2380226042  TIP3      3452            0.0000000000
     18933      3517  TIP3      OH2            -1.4111184357       19.8575841038       64.3209522133  TIP3      3453            0.0000000000
     18934      3517  TIP3      H1             -2.2703050321       20.0821619646       63.9186938872  TIP3      3453            0.0000000000
     18935      3517  TIP3      H2             -1.1405330860       19.0474571639       63.8536204515  TIP3      3453            0.0000000000
     18936      3518  TIP3      OH2             2.2040058523       19.9789752618       61.8851032667  TIP3      3454            0.0000000000
     18937      3518  TIP3      H1              3.1590616376       20.0731749991       62.0430392949  TIP3      3454            0.0000000000
     18938      3518  TIP3      H2              1.9949873152       20.6519983973       61.2054917475  TIP3      3454            0.0000000000
     18939      3519  TIP3      OH2             8.1737892695       17.5981143087       68.6129492307  TIP3      3455            0.0000000000
     18940      3519  TIP3      H1              7.5039993463       17.6350292697       69.3334490969  TIP3      3455            0.0000000000
     18941      3519  TIP3      H2              7.6491726636       17.3349158165       67.8475120707  TIP3      3455            0.0000000000
     18942      3520  TIP3      OH2             0.8903863375       21.1275930683       59.4476355442  TIP3      3456            0.0000000000
     18943      3520  TIP3      H1              0.4207195508       20.7458089262       58.6996611617  TIP3      3456            0.0000000000
     18944      3520  TIP3      H2              1.7505206234       21.3645723858       59.0518766381  TIP3      3456            0.0000000000
     18945      3521  TIP3      OH2             4.9471559482       21.0660716042       67.2335826878  TIP3      3457            0.0000000000
     18946      3521  TIP3      H1              5.6648642697       20.6113325465       66.7824375391  TIP3      3457            0.0000000000
     18947      3521  TIP3      H2              4.9035038320       20.5939596733       68.0744602252  TIP3      3457            0.0000000000
     18948      3522  TIP3      OH2             0.0538307447       17.2597216474       63.7478454146  TIP3      3458            0.0000000000
     18949      3522  TIP3      H1             -0.2655582508       16.3406716750       63.7663058228  TIP3      3458            0.0000000000
     18950      3522  TIP3      H2              0.8384068578       17.1800985517       63.1912979061  TIP3      3458            0.0000000000
     18951      3523  TIP3      OH2             3.6813308792       19.4234380744       69.7477253286  TIP3      3459            0.0000000000
     18952      3523  TIP3      H1              2.8903293342       19.9960734514       69.7816493491  TIP3      3459            0.0000000000
     18953      3523  TIP3      H2              4.2632021251       19.8056894002       70.4267903004  TIP3      3459            0.0000000000
     18954      3524  TIP3      OH2             8.1182548129       18.5045324910       59.5994725769  TIP3      3460            0.0000000000
     18955      3524  TIP3      H1              7.1672924686       18.6402038084       59.4328348617  TIP3      3460            0.0000000000
     18956      3524  TIP3      H2              8.4272797899       19.3730339067       59.9227045758  TIP3      3460            0.0000000000
     18957      3525  TIP3      OH2             8.8190441764       20.4491564365       61.2665056004  TIP3      3461            0.0000000000
     18958      3525  TIP3      H1              9.7140740138       20.2210882354       61.6080611172  TIP3      3461            0.0000000000
     18959      3525  TIP3      H2              8.9813721191       21.2150498208       60.6877304537  TIP3      3461            0.0000000000
     18960      3526  TIP3      OH2            13.6611773523       20.5332357559       61.0196259101  TIP3      3462            0.0000000000
     18961      3526  TIP3      H1             13.1671772773       20.2393235801       60.2274262041  TIP3      3462            0.0000000000
     18962      3526  TIP3      H2             13.7488933757       21.4733665552       60.7907087748  TIP3      3462            0.0000000000
     18963      3527  TIP3      OH2            -2.3671774240      -23.4916298848       58.7966402202  TIP3      3463            0.0000000000
     18964      3527  TIP3      H1             -1.7933148469      -23.0270214647       59.4239977219  TIP3      3463            0.0000000000
     18965      3527  TIP3      H2             -3.2355915393      -23.2960458696       59.1952338003  TIP3      3463            0.0000000000
     18966      3528  TIP3      OH2            -2.0629392637       18.2841388231       71.8000105837  TIP3      3464            0.0000000000
     18967      3528  TIP3      H1             -2.9864936417       18.5682881515       71.8696348361  TIP3      3464            0.0000000000
     18968      3528  TIP3      H2             -2.0157103869       17.5444825177       72.4500624529  TIP3      3464            0.0000000000
     18969      3529  TIP3      OH2             6.7780866721       17.8917736259       70.9576729948  TIP3      3465            0.0000000000
     18970      3529  TIP3      H1              7.4272345664       18.0185394918       71.6526291316  TIP3      3465            0.0000000000
     18971      3529  TIP3      H2              6.3767079180       17.0459685011       71.2333742893  TIP3      3465            0.0000000000
     18972      3530  TIP3      OH2             7.4885884892       17.5277700042       62.0998518550  TIP3      3466            0.0000000000
     18973      3530  TIP3      H1              7.7258258097       17.9448754507       61.2498863928  TIP3      3466            0.0000000000
     18974      3530  TIP3      H2              8.0682721672       18.0001170876       62.7174056650  TIP3      3466            0.0000000000
     18975      3531  TIP3      OH2             4.7453085665       19.2666159952       62.8938004175  TIP3      3467            0.0000000000
     18976      3531  TIP3      H1              5.4809254755       19.8912064030       62.9581015547  TIP3      3467            0.0000000000
     18977      3531  TIP3      H2              4.4264686104       19.1708813582       63.8148323626  TIP3      3467            0.0000000000
     18978      3532  TIP3      OH2             5.5211274659       20.4218062271       71.9850908253  TIP3      3468            0.0000000000
     18979      3532  TIP3      H1              5.1452787586       20.7096022877       72.8406591901  TIP3      3468            0.0000000000
     18980      3532  TIP3      H2              5.7930490162       19.5141779943       72.1794942533  TIP3      3468            0.0000000000
     18981      3533  TIP3      OH2             5.5606293471       16.3235103874       63.7380444273  TIP3      3469            0.0000000000
     18982      3533  TIP3      H1              5.2332686068       16.9659945473       64.3922177257  TIP3      3469            0.0000000000
     18983      3533  TIP3      H2              6.2707731598       16.8755780268       63.3261856019  TIP3      3469            0.0000000000
     18984      3534  TIP3      OH2             1.2373854476       17.4445697105       60.4696283270  TIP3      3470            0.0000000000
     18985      3534  TIP3      H1              1.1781822115       18.3337421623       60.8728820632  TIP3      3470            0.0000000000
     18986      3534  TIP3      H2              2.1394351920       17.1885837476       60.7532878344  TIP3      3470            0.0000000000
     18987      3535  TIP3      OH2            10.0467763397       21.7746288515       66.7861415325  TIP3      3471            0.0000000000
     18988      3535  TIP3      H1              9.1538335415       21.4014265496       66.7726957040  TIP3      3471            0.0000000000
     18989      3535  TIP3      H2             10.5049374439       21.2287840712       67.4582561559  TIP3      3471            0.0000000000
     18990      3536  TIP3      OH2            -2.2275180751       20.5225148488       58.6815230348  TIP3      3472            0.0000000000
     18991      3536  TIP3      H1             -2.1874534870       21.4875234824       58.8592606234  TIP3      3472            0.0000000000
     18992      3536  TIP3      H2             -3.1036142890       20.3865746738       58.3199750555  TIP3      3472            0.0000000000
     18993      3537  TIP3      OH2            -1.3846064000       15.3572330367       67.4651290514  TIP3      3473            0.0000000000
     18994      3537  TIP3      H1             -1.5378312297       15.3566464335       66.4944029913  TIP3      3473            0.0000000000
     18995      3537  TIP3      H2             -1.7464851842       14.4760729034       67.7014366777  TIP3      3473            0.0000000000
     18996      3538  TIP3      OH2             3.3215276883       22.0974426894       58.6868048228  TIP3      3474            0.0000000000
     18997      3538  TIP3      H1              3.1646805682       22.1468874843       57.7181646145  TIP3      3474            0.0000000000
     18998      3538  TIP3      H2              4.2618459747       22.3583494977       58.7044661442  TIP3      3474            0.0000000000
     18999      3539  TIP3      OH2             2.2770735140       17.3111598598       70.8215234141  TIP3      3475            0.0000000000
     19000      3539  TIP3      H1              2.8042221828       18.0440234583       70.4441983978  TIP3      3475            0.0000000000
     19001      3539  TIP3      H2              1.3641402272       17.6058791206       70.6544818792  TIP3      3475            0.0000000000
     19002      3540  TIP3      OH2             4.1147275146      -24.0676356770       70.7888850066  TIP3      3476            0.0000000000
     19003      3540  TIP3      H1              5.0453359388      -23.8875079739       70.5920876267  TIP3      3476            0.0000000000
     19004      3540  TIP3      H2              3.7640572751      -23.2036489993       71.0612152997  TIP3      3476            0.0000000000
     19005      3541  TIP3      OH2             3.0828027684       15.0324456941       71.7350891641  TIP3      3477            0.0000000000
     19006      3541  TIP3      H1              2.9182258287       15.9622972510       71.4354953491  TIP3      3477            0.0000000000
     19007      3541  TIP3      H2              2.3948710660       14.6413382837       71.1600420096  TIP3      3477            0.0000000000
     19008      3542  TIP3      OH2            12.1799038260       20.6007844315       58.6357876803  TIP3      3478            0.0000000000
     19009      3542  TIP3      H1             12.3172146496       21.2622114082       57.9416240386  TIP3      3478            0.0000000000
     19010      3542  TIP3      H2             12.0565155622       19.7741573340       58.1255538939  TIP3      3478            0.0000000000
     19011      3543  TIP3      OH2            11.3201403010       22.0860632002       64.2469124854  TIP3      3479            0.0000000000
     19012      3543  TIP3      H1             11.2249330800       21.1255464696       64.2647117619  TIP3      3479            0.0000000000
     19013      3543  TIP3      H2             11.1526739726       22.3053620731       65.1826306552  TIP3      3479            0.0000000000
     19014      3544  TIP3      OH2            11.4451252230       18.1506543218       57.7790248854  TIP3      3480            0.0000000000
     19015      3544  TIP3      H1             12.0501878626       17.6857331674       58.3964484023  TIP3      3480            0.0000000000
     19016      3544  TIP3      H2             10.6085002275       17.6876415654       57.9079381296  TIP3      3480            0.0000000000
     19017      3545  TIP3      OH2            10.9801043855       19.7124513942       62.7641281245  TIP3      3481            0.0000000000
     19018      3545  TIP3      H1             11.2763771085       18.7844866462       62.9085825101  TIP3      3481            0.0000000000
     19019      3545  TIP3      H2             11.8120608691       20.0879552966       62.4448523234  TIP3      3481            0.0000000000
     19020      3546  TIP3      OH2            11.7007899813       20.0657916367       68.2197479279  TIP3      3482            0.0000000000
     19021      3546  TIP3      H1             12.6261720485       20.4097558125       68.1510758981  TIP3      3482            0.0000000000
     19022      3546  TIP3      H2             11.5007989002       20.3865306215       69.1186450171  TIP3      3482            0.0000000000
     19023      3547  TIP3      OH2            11.7297282049       20.9423989398       70.8752126687  TIP3      3483            0.0000000000
     19024      3547  TIP3      H1             10.8493226820       21.1981575421       71.2346802184  TIP3      3483            0.0000000000
     19025      3547  TIP3      H2             12.2212435840       21.7810070204       70.6698684016  TIP3      3483            0.0000000000
     19026      3548  TIP3      OH2            11.7011717411       16.9712171472       62.8126415470  TIP3      3484            0.0000000000
     19027      3548  TIP3      H1             11.9511750775       16.5469246893       63.6656987751  TIP3      3484            0.0000000000
     19028      3548  TIP3      H2             11.1345528118       16.2957924251       62.3835102163  TIP3      3484            0.0000000000
     19029      3549  TIP3      OH2            -2.8316648222       17.7485398957       67.4129339676  TIP3      3485            0.0000000000
     19030      3549  TIP3      H1             -2.3649714786       16.9171573655       67.6160669060  TIP3      3485            0.0000000000
     19031      3549  TIP3      H2             -2.2177724413       18.4223995905       67.7339082569  TIP3      3485            0.0000000000
     19032      3550  TIP3      OH2            -4.5404207588       20.7855450528       68.3664327154  TIP3      3486            0.0000000000
     19033      3550  TIP3      H1             -3.9614593023       20.5233875092       67.6210027641  TIP3      3486            0.0000000000
     19034      3550  TIP3      H2             -4.0559303961       21.5585870767       68.6840509989  TIP3      3486            0.0000000000
     19035      3551  TIP3      OH2            13.5052989020       16.9753759416       59.3708409347  TIP3      3487            0.0000000000
     19036      3551  TIP3      H1             13.9149385712       16.2698081281       58.8213647971  TIP3      3487            0.0000000000
     19037      3551  TIP3      H2             14.2264898251       17.6159696061       59.4323162288  TIP3      3487            0.0000000000
     19038      3552  TIP3      OH2            -4.1591461530       17.0566697135       62.4950020276  TIP3      3488            0.0000000000
     19039      3552  TIP3      H1             -5.1035668115       17.1791515107       62.3258152458  TIP3      3488            0.0000000000
     19040      3552  TIP3      H2             -3.7607297962       17.5258089432       61.7429001914  TIP3      3488            0.0000000000
     19041      3553  TIP3      OH2            -4.2250943310       15.6793250250       70.8312209081  TIP3      3489            0.0000000000
     19042      3553  TIP3      H1             -4.9790483777       15.3601190612       71.3321670220  TIP3      3489            0.0000000000
     19043      3553  TIP3      H2             -4.6548549503       16.3520893058       70.2693241836  TIP3      3489            0.0000000000
     19044      3554  TIP3      OH2             5.9530431697       16.6041631840       66.8135430943  TIP3      3490            0.0000000000
     19045      3554  TIP3      H1              5.2666790253       15.9818569983       67.1110634167  TIP3      3490            0.0000000000
     19046      3554  TIP3      H2              6.4914444617       16.0472005842       66.2424953577  TIP3      3490            0.0000000000
     19047      3555  TIP3      OH2            11.1027107645       14.6109597614       66.8364170978  TIP3      3491            0.0000000000
     19048      3555  TIP3      H1             11.6972424557       15.2458886983       66.3667255454  TIP3      3491            0.0000000000
     19049      3555  TIP3      H2             10.2119953440       14.9978380012       66.6759342187  TIP3      3491            0.0000000000
     19050      3556  TIP3      OH2            12.7523967671       15.9133030116       65.1287910705  TIP3      3492            0.0000000000
     19051      3556  TIP3      H1             13.4398213519       15.3262632247       64.7325255065  TIP3      3492            0.0000000000
     19052      3556  TIP3      H2             13.2834339019       16.7327218789       65.2711208614  TIP3      3492            0.0000000000
     19053      3557  TIP3      OH2            -1.6615972995       15.2198249274       64.6743847003  TIP3      3493            0.0000000000
     19054      3557  TIP3      H1             -2.4663197298       15.0641049271       64.1481118787  TIP3      3493            0.0000000000
     19055      3557  TIP3      H2             -1.2366215231       14.3424899544       64.5986037674  TIP3      3493            0.0000000000
     19056      3558  TIP3      OH2            -2.9327132038       14.9837933627       60.3559765861  TIP3      3494            0.0000000000
     19057      3558  TIP3      H1             -2.4050510133       15.6387111954       59.8617645920  TIP3      3494            0.0000000000
     19058      3558  TIP3      H2             -3.4642800063       15.5510072457       60.9318022918  TIP3      3494            0.0000000000
     19059      3559  TIP3      OH2             2.7514970139       15.1431727669       64.4730897662  TIP3      3495            0.0000000000
     19060      3559  TIP3      H1              3.6508453595       15.4916691599       64.3525518537  TIP3      3495            0.0000000000
     19061      3559  TIP3      H2              2.7485455341       14.9395032924       65.4098120792  TIP3      3495            0.0000000000
     19062      3560  TIP3      OH2             8.5362957615       15.1597823153       66.0734034820  TIP3      3496            0.0000000000
     19063      3560  TIP3      H1              8.4483041934       15.2961963731       65.1250269265  TIP3      3496            0.0000000000
     19064      3560  TIP3      H2              8.1382999280       14.2674523722       66.1981837453  TIP3      3496            0.0000000000
     19065      3561  TIP3      OH2             9.7612081352       15.1900186996       61.7636269366  TIP3      3497            0.0000000000
     19066      3561  TIP3      H1              9.0033154425       15.7771464951       61.6229696696  TIP3      3497            0.0000000000
     19067      3561  TIP3      H2              9.3340532804       14.3431340142       62.0317815772  TIP3      3497            0.0000000000
     19068      3562  TIP3      OH2            -1.1124175850       16.9164252491       58.9235541239  TIP3      3498            0.0000000000
     19069      3562  TIP3      H1             -0.5801483973       16.3147198461       58.3766853345  TIP3      3498            0.0000000000
     19070      3562  TIP3      H2             -0.4350403344       17.2422601656       59.5434123228  TIP3      3498            0.0000000000
     19071      3563  TIP3      OH2             3.8917490123       17.1385573512       61.3105515177  TIP3      3499            0.0000000000
     19072      3563  TIP3      H1              4.1926214788       16.5882535866       62.0527356179  TIP3      3499            0.0000000000
     19073      3563  TIP3      H2              4.0175377798       18.0180260688       61.7233074542  TIP3      3499            0.0000000000
     19074      3564  TIP3      OH2            17.4654212015       23.2004234313       69.6773311824  TIP3      3500            0.0000000000
     19075      3564  TIP3      H1             17.6469012930       22.5392864440       70.3624100321  TIP3      3500            0.0000000000
     19076      3564  TIP3      H2             18.1518773739       23.8579056538       69.7983636327  TIP3      3500            0.0000000000
     19077      3565  TIP3      OH2            15.0804527622       21.4012348206       63.4430060187  TIP3      3501            0.0000000000
     19078      3565  TIP3      H1             14.5659559320       22.2073639644       63.5645060561  TIP3      3501            0.0000000000
     19079      3565  TIP3      H2             14.4438755665       20.8005531449       63.0377692226  TIP3      3501            0.0000000000
     19080      3566  TIP3      OH2            19.5646804286       18.5555055926       66.0458695672  TIP3      3502            0.0000000000
     19081      3566  TIP3      H1             19.9273649107       19.3361059784       65.5732147874  TIP3      3502            0.0000000000
     19082      3566  TIP3      H2             19.2818294584       18.0010232465       65.2934767800  TIP3      3502            0.0000000000
     19083      3567  TIP3      OH2            16.3042581552       20.5437450145       66.7967971116  TIP3      3503            0.0000000000
     19084      3567  TIP3      H1             17.1612030364       20.3657995432       67.2121369500  TIP3      3503            0.0000000000
     19085      3567  TIP3      H2             16.5350380840       20.7039726484       65.8751325762  TIP3      3503            0.0000000000
     19086      3568  TIP3      OH2            21.4804439231       22.3363179778       66.1351889777  TIP3      3504            0.0000000000
     19087      3568  TIP3      H1             22.2242825335       21.7632089157       66.4136109508  TIP3      3504            0.0000000000
     19088      3568  TIP3      H2             20.9613224919       21.7504153961       65.5460046010  TIP3      3504            0.0000000000
     19089      3569  TIP3      OH2            18.5693411810       17.4297089352       70.0918100086  TIP3      3505            0.0000000000
     19090      3569  TIP3      H1             18.3868924157       18.0378307565       69.3328573851  TIP3      3505            0.0000000000
     19091      3569  TIP3      H2             17.8837115771       17.7223750641       70.7309285029  TIP3      3505            0.0000000000
     19092      3570  TIP3      OH2            18.2431926304       19.2996414838       68.1143283778  TIP3      3506            0.0000000000
     19093      3570  TIP3      H1             18.8871325281       19.9712105606       68.4020341523  TIP3      3506            0.0000000000
     19094      3570  TIP3      H2             18.7090003270       18.9457513157       67.3160909275  TIP3      3506            0.0000000000
     19095      3571  TIP3      OH2            22.5422719401       14.8047992725       67.4168922954  TIP3      3507            0.0000000000
     19096      3571  TIP3      H1             22.4588423228       13.8564073809       67.5450673948  TIP3      3507            0.0000000000
     19097      3571  TIP3      H2             21.7289098073       15.1480721790       67.8280522566  TIP3      3507            0.0000000000
     19098      3572  TIP3      OH2            20.5052475757      -23.8564329880       68.7824665854  TIP3      3508            0.0000000000
     19099      3572  TIP3      H1             20.7093061878      -23.6831195046       67.8373244710  TIP3      3508            0.0000000000
     19100      3572  TIP3      H2             20.5008208361      -22.9285441572       69.0746510052  TIP3      3508            0.0000000000
     19101      3573  TIP3      OH2            20.0076333773       15.7575734338       68.2067333608  TIP3      3509            0.0000000000
     19102      3573  TIP3      H1             19.0850968516       15.6211509865       67.8913760169  TIP3      3509            0.0000000000
     19103      3573  TIP3      H2             19.8858355335       16.5375128325       68.7756777871  TIP3      3509            0.0000000000
     19104      3574  TIP3      OH2            20.0592850679       20.5019566877       69.6133362546  TIP3      3510            0.0000000000
     19105      3574  TIP3      H1             19.2630619139       20.6677590370       70.1546668816  TIP3      3510            0.0000000000
     19106      3574  TIP3      H2             20.1682918859       21.3969737638       69.1983719376  TIP3      3510            0.0000000000
     19107      3575  TIP3      OH2            20.0638926293       20.7371176767       64.3526467838  TIP3      3511            0.0000000000
     19108      3575  TIP3      H1             19.0930070520       20.5884093515       64.2421816263  TIP3      3511            0.0000000000
     19109      3575  TIP3      H2             20.3978142424       20.4459873098       63.4855752440  TIP3      3511            0.0000000000
     19110      3576  TIP3      OH2            17.8253699351       20.9429325716       71.2675861570  TIP3      3512            0.0000000000
     19111      3576  TIP3      H1             17.7758605457       21.3004923920       72.1642667325  TIP3      3512            0.0000000000
     19112      3576  TIP3      H2             17.3192707887       20.1181670641       71.3844379313  TIP3      3512            0.0000000000
     19113      3577  TIP3      OH2            20.9545128218       18.1730168274       58.0984909944  TIP3      3513            0.0000000000
     19114      3577  TIP3      H1             20.5159051149       17.9237342197       58.9290873789  TIP3      3513            0.0000000000
     19115      3577  TIP3      H2             20.3344619415       18.7660309528       57.6609882735  TIP3      3513            0.0000000000
     19116      3578  TIP3      OH2            14.3853057273       17.9539065254       65.2272258850  TIP3      3514            0.0000000000
     19117      3578  TIP3      H1             15.0758847555       18.0537761498       65.9166176325  TIP3      3514            0.0000000000
     19118      3578  TIP3      H2             14.8692613112       17.6796571489       64.4360307658  TIP3      3514            0.0000000000
     19119      3579  TIP3      OH2            15.5626526008       18.7358127649       60.5304391783  TIP3      3515            0.0000000000
     19120      3579  TIP3      H1             16.1283565488       19.3434221908       60.0102959727  TIP3      3515            0.0000000000
     19121      3579  TIP3      H2             14.9165172578       19.3962541401       60.8542162864  TIP3      3515            0.0000000000
     19122      3580  TIP3      OH2            22.0993024869       18.5653562087       65.5463065228  TIP3      3516            0.0000000000
     19123      3580  TIP3      H1             21.2962507986       18.2417028776       65.9867167226  TIP3      3516            0.0000000000
     19124      3580  TIP3      H2             22.7698117721       18.4221684490       66.2273317196  TIP3      3516            0.0000000000
     19125      3581  TIP3      OH2            17.4678959690       19.8746117005       64.2921837736  TIP3      3517            0.0000000000
     19126      3581  TIP3      H1             16.5882411461       20.1123042270       63.9486147610  TIP3      3517            0.0000000000
     19127      3581  TIP3      H2             17.6575340555       19.0293536915       63.8650476982  TIP3      3517            0.0000000000
     19128      3582  TIP3      OH2            21.1396626284       19.9623768672       61.9022515730  TIP3      3518            0.0000000000
     19129      3582  TIP3      H1             22.0452916075       20.2071365445       62.0513682171  TIP3      3518            0.0000000000
     19130      3582  TIP3      H2             20.8296819179       20.6084816994       61.2303710042  TIP3      3518            0.0000000000
     19131      3583  TIP3      OH2            19.8315380105       21.1050651297       59.4735555639  TIP3      3519            0.0000000000
     19132      3583  TIP3      H1             19.2601608280       20.7782506166       58.7634658421  TIP3      3519            0.0000000000
     19133      3583  TIP3      H2             20.6392499282       21.3895743912       59.0045150860  TIP3      3519            0.0000000000
     19134      3584  TIP3      OH2            18.9208727397       17.2618933941       63.7211810492  TIP3      3520            0.0000000000
     19135      3584  TIP3      H1             18.5687099419       16.3508563999       63.7527647187  TIP3      3520            0.0000000000
     19136      3584  TIP3      H2             19.6910191642       17.1600272033       63.1542703018  TIP3      3520            0.0000000000
     19137      3585  TIP3      OH2            22.4082230081       19.2538901135       70.0674756519  TIP3      3521            0.0000000000
     19138      3585  TIP3      H1             21.8055125074       19.9343243015       69.6892340394  TIP3      3521            0.0000000000
     19139      3585  TIP3      H2             23.0917243087       19.8025510770       70.4423790455  TIP3      3521            0.0000000000
     19140      3586  TIP3      OH2            16.4909742185      -23.4799853797       58.7570294138  TIP3      3522            0.0000000000
     19141      3586  TIP3      H1             17.0686658214      -23.0332081358       59.3982357382  TIP3      3522            0.0000000000
     19142      3586  TIP3      H2             15.6293331659      -23.3040397987       59.1857937382  TIP3      3522            0.0000000000
     19143      3587  TIP3      OH2            16.7460328186       18.3035129465       71.8195742567  TIP3      3523            0.0000000000
     19144      3587  TIP3      H1             15.8186304039       18.5634097909       71.8749926981  TIP3      3523            0.0000000000
     19145      3587  TIP3      H2             16.8202762207       17.5535095372       72.4576111247  TIP3      3523            0.0000000000
     19146      3588  TIP3      OH2            19.9112169714       17.5387853530       60.4855327792  TIP3      3524            0.0000000000
     19147      3588  TIP3      H1             19.9599960069       18.4142253698       60.9003606885  TIP3      3524            0.0000000000
     19148      3588  TIP3      H2             20.8304410935       17.2303181428       60.6858968511  TIP3      3524            0.0000000000
     19149      3589  TIP3      OH2            16.6360557517       20.5292499992       58.6863738540  TIP3      3525            0.0000000000
     19150      3589  TIP3      H1             16.6644612732       21.4925122818       58.8573706046  TIP3      3525            0.0000000000
     19151      3589  TIP3      H2             15.7608219748       20.3815326768       58.3212683945  TIP3      3525            0.0000000000
     19152      3590  TIP3      OH2            17.4562332821       15.3359400543       67.4877631108  TIP3      3526            0.0000000000
     19153      3590  TIP3      H1             17.3375657445       15.3657645492       66.5081822701  TIP3      3526            0.0000000000
     19154      3590  TIP3      H2             17.0864114366       14.4516733528       67.6992847862  TIP3      3526            0.0000000000
     19155      3591  TIP3      OH2            22.2318313347       22.1261201627       58.6973840955  TIP3      3527            0.0000000000
     19156      3591  TIP3      H1             21.9717175963       22.0473420638       57.7448912835  TIP3      3527            0.0000000000
     19157      3591  TIP3      H2             23.1401235291       22.3910917946       58.5448552831  TIP3      3527            0.0000000000
     19158      3592  TIP3      OH2            21.1263867376       17.2252902436       70.8439109665  TIP3      3528            0.0000000000
     19159      3592  TIP3      H1             21.6460838819       18.0114962093       70.5580806396  TIP3      3528            0.0000000000
     19160      3592  TIP3      H2             20.2244426993       17.5579716001       70.6763555860  TIP3      3528            0.0000000000
     19161      3593  TIP3      OH2            23.0016285216      -24.2814046897       70.9810048415  TIP3      3529            0.0000000000
     19162      3593  TIP3      H1             23.8440527078      -23.9211631515       70.6586899640  TIP3      3529            0.0000000000
     19163      3593  TIP3      H2             22.5600261678      -23.4203254012       71.0762553654  TIP3      3529            0.0000000000
     19164      3594  TIP3      OH2            21.6325505370       14.9477803963       71.8585179333  TIP3      3530            0.0000000000
     19165      3594  TIP3      H1             21.6057093871       15.8915747750       71.5531710036  TIP3      3530            0.0000000000
     19166      3594  TIP3      H2             21.0609272848       14.5918328339       71.1457756124  TIP3      3530            0.0000000000
     19167      3595  TIP3      OH2            16.0322206425       17.6952687537       67.4073283634  TIP3      3531            0.0000000000
     19168      3595  TIP3      H1             16.5282359789       16.8902519367       67.6344148911  TIP3      3531            0.0000000000
     19169      3595  TIP3      H2             16.6131489291       18.4215817612       67.6909942130  TIP3      3531            0.0000000000
     19170      3596  TIP3      OH2            14.3196309718       20.7902698494       68.4043653755  TIP3      3532            0.0000000000
     19171      3596  TIP3      H1             14.8872816609       20.5332527861       67.6356599301  TIP3      3532            0.0000000000
     19172      3596  TIP3      H2             14.7788236594       21.6217177797       68.5971490473  TIP3      3532            0.0000000000
     19173      3597  TIP3      OH2            14.6941283302       17.0187166069       62.4606861597  TIP3      3533            0.0000000000
     19174      3597  TIP3      H1             13.7480289529       17.1758489691       62.3244447313  TIP3      3533            0.0000000000
     19175      3597  TIP3      H2             15.0874851462       17.5278356286       61.7318776154  TIP3      3533            0.0000000000
     19176      3598  TIP3      OH2            14.6187603044       15.6849630974       70.8392991647  TIP3      3534            0.0000000000
     19177      3598  TIP3      H1             13.8532053347       15.3727961168       71.3319553102  TIP3      3534            0.0000000000
     19178      3598  TIP3      H2             14.2057618203       16.3620336369       70.2647762497  TIP3      3534            0.0000000000
     19179      3599  TIP3      OH2            17.2100640647       15.2022380577       64.6854592341  TIP3      3535            0.0000000000
     19180      3599  TIP3      H1             16.4161111581       15.0527350884       64.1396352570  TIP3      3535            0.0000000000
     19181      3599  TIP3      H2             17.6254662360       14.3198121996       64.5845389357  TIP3      3535            0.0000000000
     19182      3600  TIP3      OH2            15.8684023559       14.9910192853       60.3159687048  TIP3      3536            0.0000000000
     19183      3600  TIP3      H1             16.4721350608       15.6100962572       59.8724966240  TIP3      3536            0.0000000000
     19184      3600  TIP3      H2             15.4004804494       15.5607819357       60.9447658310  TIP3      3536            0.0000000000
     19185      3601  TIP3      OH2            21.5134429749       15.3607160015       64.5805626535  TIP3      3537            0.0000000000
     19186      3601  TIP3      H1             22.4558721848       15.4689764516       64.3906314044  TIP3      3537            0.0000000000
     19187      3601  TIP3      H2             21.5566336836       14.9904500152       65.4683265143  TIP3      3537            0.0000000000
     19188      3602  TIP3      OH2            17.7730587346       16.9710476226       58.8799950561  TIP3      3538            0.0000000000
     19189      3602  TIP3      H1             18.2829716577       16.3277849010       58.3631596647  TIP3      3538            0.0000000000
     19190      3602  TIP3      H2             18.4454396618       17.2366855329       59.5373071042  TIP3      3538            0.0000000000
     19191      3603  TIP3      OH2            22.3911903122       17.3155301684       60.9528250164  TIP3      3539            0.0000000000
     19192      3603  TIP3      H1             22.7992254014       16.5842919309       61.4440800220  TIP3      3539            0.0000000000
     19193      3603  TIP3      H2             22.7146496161       18.0852815118       61.4370906233  TIP3      3539            0.0000000000
     19194      3604  TIP3      OH2           -11.4305340143      -13.3276270641      -65.7135643253  TIP3      3540            0.0000000000
     19195      3604  TIP3      H1            -11.4817743264      -12.3462633037      -65.7176103909  TIP3      3540            0.0000000000
     19196      3604  TIP3      H2            -12.1810347370      -13.5615887527      -66.2803768252  TIP3      3540            0.0000000000
     19197      3605  TIP3      OH2           -12.5749455732      -14.1029403721      -62.2055895772  TIP3      3541            0.0000000000
     19198      3605  TIP3      H1            -12.6024736826      -14.7276767109      -61.4637942837  TIP3      3541            0.0000000000
     19199      3605  TIP3      H2            -12.9990143783      -14.6170833051      -62.9156294406  TIP3      3541            0.0000000000
     19200      3606  TIP3      OH2           -20.2267519539      -14.4304306172      -60.6625050746  TIP3      3542            0.0000000000
     19201      3606  TIP3      H1            -20.1414878203      -15.1233480131      -59.9712871112  TIP3      3542            0.0000000000
     19202      3606  TIP3      H2            -19.4936199654      -13.8384374202      -60.4215289936  TIP3      3542            0.0000000000
     19203      3607  TIP3      OH2            -8.9430414648      -11.1363164582      -63.8903887247  TIP3      3543            0.0000000000
     19204      3607  TIP3      H1             -9.3289625119      -11.8582647820      -63.3900692564  TIP3      3543            0.0000000000
     19205      3607  TIP3      H2             -8.8852742459      -10.4397765498      -63.2117704767  TIP3      3543            0.0000000000
     19206      3608  TIP3      OH2           -19.3825585420       -9.9479682965      -62.1613004298  TIP3      3544            0.0000000000
     19207      3608  TIP3      H1            -19.6527110375      -10.8404313860      -62.4597601523  TIP3      3544            0.0000000000
     19208      3608  TIP3      H2            -18.4232269337      -10.1095412120      -62.1189836701  TIP3      3544            0.0000000000
     19209      3609  TIP3      OH2           -22.6233379994      -16.3916577288      -66.7462482974  TIP3      3545            0.0000000000
     19210      3609  TIP3      H1            -23.0406747521      -15.5189771830      -66.6707024850  TIP3      3545            0.0000000000
     19211      3609  TIP3      H2            -23.2918730786      -16.9582537257      -67.1100623288  TIP3      3545            0.0000000000
     19212      3610  TIP3      OH2           -21.9152159576      -14.1912826906      -64.4570095170  TIP3      3546            0.0000000000
     19213      3610  TIP3      H1            -21.6710886554      -15.0512432103      -64.0595123038  TIP3      3546            0.0000000000
     19214      3610  TIP3      H2            -21.2371757551      -14.0622255010      -65.1297603709  TIP3      3546            0.0000000000
     19215      3611  TIP3      OH2           -11.7987085270       -5.9580463983      -63.6625352966  TIP3      3547            0.0000000000
     19216      3611  TIP3      H1            -11.1478728887       -6.6379231172      -63.9608866973  TIP3      3547            0.0000000000
     19217      3611  TIP3      H2            -12.0415349275       -6.3454889284      -62.8155002478  TIP3      3547            0.0000000000
     19218      3612  TIP3      OH2           -14.2278701302      -11.7047558155      -61.6742564051  TIP3      3548            0.0000000000
     19219      3612  TIP3      H1            -13.9073311726      -12.3157316499      -62.3532206848  TIP3      3548            0.0000000000
     19220      3612  TIP3      H2            -13.3950132138      -11.5340887403      -61.1963444747  TIP3      3548            0.0000000000
     19221      3613  TIP3      OH2            -5.5922787265      -20.1104630306      -60.9864869446  TIP3      3549            0.0000000000
     19222      3613  TIP3      H1             -5.4504356067      -19.4801229924      -60.2409558039  TIP3      3549            0.0000000000
     19223      3613  TIP3      H2             -5.0791463396      -19.6557131647      -61.6698910133  TIP3      3549            0.0000000000
     19224      3614  TIP3      OH2           -11.0471644779      -17.2528679559      -61.3610951517  TIP3      3550            0.0000000000
     19225      3614  TIP3      H1            -10.9018291802      -18.2164318972      -61.3629678386  TIP3      3550            0.0000000000
     19226      3614  TIP3      H2            -11.1649222759      -17.0993515969      -62.3195457209  TIP3      3550            0.0000000000
     19227      3615  TIP3      OH2           -18.1756346649      -19.0258658245      -64.2563362432  TIP3      3551            0.0000000000
     19228      3615  TIP3      H1            -17.8200656056      -18.2751274604      -64.7602931866  TIP3      3551            0.0000000000
     19229      3615  TIP3      H2            -18.3025617291      -19.7111596895      -64.9378462759  TIP3      3551            0.0000000000
     19230      3616  TIP3      OH2           -10.1647242742      -19.1483245342      -65.8517545434  TIP3      3552            0.0000000000
     19231      3616  TIP3      H1             -9.5606020048      -19.4083673905      -65.1188642749  TIP3      3552            0.0000000000
     19232      3616  TIP3      H2             -9.6270686526      -18.4784118910      -66.3025089471  TIP3      3552            0.0000000000
     19233      3617  TIP3      OH2           -21.1921063666      -16.6969334183      -63.5136867983  TIP3      3553            0.0000000000
     19234      3617  TIP3      H1            -20.5901191851      -17.2859272568      -63.0212446583  TIP3      3553            0.0000000000
     19235      3617  TIP3      H2            -21.1456250827      -17.0815771236      -64.4018774097  TIP3      3553            0.0000000000
     19236      3618  TIP3      OH2           -16.1832906700      -15.1580225643      -64.0924999309  TIP3      3554            0.0000000000
     19237      3618  TIP3      H1            -15.5059669198      -15.7581266868      -63.7253033387  TIP3      3554            0.0000000000
     19238      3618  TIP3      H2            -16.6813502270      -15.8111585766      -64.6260201725  TIP3      3554            0.0000000000
     19239      3619  TIP3      OH2            -5.1767549349      -18.6022384727      -58.7288693599  TIP3      3555            0.0000000000
     19240      3619  TIP3      H1             -5.7887175738      -17.8422342297      -58.8341357555  TIP3      3555            0.0000000000
     19241      3619  TIP3      H2             -5.1744624825      -18.7132978927      -57.7708507008  TIP3      3555            0.0000000000
     19242      3620  TIP3      OH2           -19.1537924260      -20.3018382403      -60.1378492659  TIP3      3556            0.0000000000
     19243      3620  TIP3      H1            -19.3037380984      -19.6707288322      -60.8781392132  TIP3      3556            0.0000000000
     19244      3620  TIP3      H2            -19.8191670551      -20.0005337824      -59.4719415012  TIP3      3556            0.0000000000
     19245      3621  TIP3      OH2           -11.7836647316      -10.7762522368      -66.5961783428  TIP3      3557            0.0000000000
     19246      3621  TIP3      H1            -12.0119726508      -11.0258877647      -67.5087482337  TIP3      3557            0.0000000000
     19247      3621  TIP3      H2            -12.0632318460       -9.8355071925      -66.5533568647  TIP3      3557            0.0000000000
     19248      3622  TIP3      OH2           -16.5331578304      -12.5993130275      -59.9318836639  TIP3      3558            0.0000000000
     19249      3622  TIP3      H1            -17.2359070201      -11.9721757394      -59.6615160857  TIP3      3558            0.0000000000
     19250      3622  TIP3      H2            -15.8304574627      -11.9957663502      -60.2269526336  TIP3      3558            0.0000000000
     19251      3623  TIP3      OH2            -8.4196238058      -19.6301747010      -63.7771262564  TIP3      3559            0.0000000000
     19252      3623  TIP3      H1             -8.5990868419      -20.4610278543      -63.3094397988  TIP3      3559            0.0000000000
     19253      3623  TIP3      H2             -7.6987335703      -19.2779474157      -63.2360306740  TIP3      3559            0.0000000000
     19254      3624  TIP3      OH2           -19.4621179845      -18.3090008740      -62.0746375446  TIP3      3560            0.0000000000
     19255      3624  TIP3      H1            -18.7631531756      -17.6913911461      -61.7726482186  TIP3      3560            0.0000000000
     19256      3624  TIP3      H2            -18.9566386348      -18.7855762327      -62.7942725204  TIP3      3560            0.0000000000
     19257      3625  TIP3      OH2           -18.0415549080      -10.5641621605      -59.1153374832  TIP3      3561            0.0000000000
     19258      3625  TIP3      H1            -18.1085351162       -9.6462459032      -59.4319189155  TIP3      3561            0.0000000000
     19259      3625  TIP3      H2            -18.9242659882      -10.6717872290      -58.6855859213  TIP3      3561            0.0000000000
     19260      3626  TIP3      OH2           -21.5376286059      -10.7020850156      -68.3362654524  TIP3      3562            0.0000000000
     19261      3626  TIP3      H1            -22.2522420137      -10.7830444899      -69.0093570549  TIP3      3562            0.0000000000
     19262      3626  TIP3      H2            -21.9116696286      -10.0729516297      -67.7073662160  TIP3      3562            0.0000000000
     19263      3627  TIP3      OH2            -8.3970849844       -9.2916997076      -61.5392564110  TIP3      3563            0.0000000000
     19264      3627  TIP3      H1             -9.3659367886       -9.1708544652      -61.4195925001  TIP3      3563            0.0000000000
     19265      3627  TIP3      H2             -8.1284376874       -8.3818809686      -61.7649164863  TIP3      3563            0.0000000000
     19266      3628  TIP3      OH2            -7.9890508591      -21.0255034473      -60.0159970119  TIP3      3564            0.0000000000
     19267      3628  TIP3      H1             -8.7698803785      -20.5022460082      -60.2600298195  TIP3      3564            0.0000000000
     19268      3628  TIP3      H2             -7.3504587865      -20.6513298910      -60.6513729374  TIP3      3564            0.0000000000
     19269      3629  TIP3      OH2           -14.8343221630      -22.6887632862      -62.7176030575  TIP3      3565            0.0000000000
     19270      3629  TIP3      H1            -15.0728418500      -23.6279179652      -62.6636031661  TIP3      3565            0.0000000000
     19271      3629  TIP3      H2            -15.6796486666      -22.2789936890      -62.4278905904  TIP3      3565            0.0000000000
     19272      3630  TIP3      OH2           -10.1212608022       -7.5129351332      -64.9548920612  TIP3      3566            0.0000000000
     19273      3630  TIP3      H1             -9.7201729718       -8.2432117730      -65.4724521457  TIP3      3566            0.0000000000
     19274      3630  TIP3      H2             -9.6305607984       -6.7446100856      -65.3212375820  TIP3      3566            0.0000000000
     19275      3631  TIP3      OH2            -8.9052464321       -9.5891444134      -66.4407648733  TIP3      3567            0.0000000000
     19276      3631  TIP3      H1             -9.2003244603      -10.2652576482      -67.0754719456  TIP3      3567            0.0000000000
     19277      3631  TIP3      H2             -8.8823908303      -10.0966254104      -65.6087848186  TIP3      3567            0.0000000000
     19278      3632  TIP3      OH2            -7.3268069056      -10.9703754090      -57.9399522328  TIP3      3568            0.0000000000
     19279      3632  TIP3      H1             -7.1589697582      -11.6542475684      -58.6271008686  TIP3      3568            0.0000000000
     19280      3632  TIP3      H2             -7.0875509298      -10.1516349028      -58.4136669307  TIP3      3568            0.0000000000
     19281      3633  TIP3      OH2           -12.8056169908      -14.1265030065      -68.2018400762  TIP3      3569            0.0000000000
     19282      3633  TIP3      H1            -13.5047804681      -13.5262468149      -68.5391506154  TIP3      3569            0.0000000000
     19283      3633  TIP3      H2            -12.1005592684      -14.0048869323      -68.8626341463  TIP3      3569            0.0000000000
     19284      3634  TIP3      OH2           -12.6778248759      -15.5362600908      -71.0862548993  TIP3      3570            0.0000000000
     19285      3634  TIP3      H1            -12.0113353209      -15.5423927838      -70.3794875962  TIP3      3570            0.0000000000
     19286      3634  TIP3      H2            -12.2896683502      -16.1717557796      -71.6897234213  TIP3      3570            0.0000000000
     19287      3635  TIP3      OH2            -5.4062900057      -14.6616530943      -59.9249367652  TIP3      3571            0.0000000000
     19288      3635  TIP3      H1             -6.0481644821      -13.9253466648      -59.8892878053  TIP3      3571            0.0000000000
     19289      3635  TIP3      H2             -4.8796675812      -14.4168741537      -60.7106767323  TIP3      3571            0.0000000000
     19290      3636  TIP3      OH2            -9.3350894770      -13.9344986210      -67.2532880583  TIP3      3572            0.0000000000
     19291      3636  TIP3      H1            -10.0636367036      -13.6575265377      -66.6495741675  TIP3      3572            0.0000000000
     19292      3636  TIP3      H2             -8.8361954524      -14.5572975764      -66.6937841621  TIP3      3572            0.0000000000
     19293      3637  TIP3      OH2            -9.4210272145      -15.7351506890      -58.1134323241  TIP3      3573            0.0000000000
     19294      3637  TIP3      H1             -9.4245877880      -14.8966845897      -57.6252113332  TIP3      3573            0.0000000000
     19295      3637  TIP3      H2            -10.0556775594      -15.4785797098      -58.8155186755  TIP3      3573            0.0000000000
     19296      3638  TIP3      OH2           -17.7251501160      -13.2158790506      -65.3477178300  TIP3      3574            0.0000000000
     19297      3638  TIP3      H1            -18.0519487836      -13.5986556487      -66.2014500571  TIP3      3574            0.0000000000
     19298      3638  TIP3      H2            -17.1255528887      -13.9212010192      -65.0113603538  TIP3      3574            0.0000000000
     19299      3639  TIP3      OH2           -16.4511605949       -9.8823754490      -62.6541235427  TIP3      3575            0.0000000000
     19300      3639  TIP3      H1            -16.4180594913      -10.3583991093      -63.4928853222  TIP3      3575            0.0000000000
     19301      3639  TIP3      H2            -15.6447149140      -10.2094649824      -62.2110452333  TIP3      3575            0.0000000000
     19302      3640  TIP3      OH2           -17.4382997275      -14.4452351896      -61.6554674652  TIP3      3576            0.0000000000
     19303      3640  TIP3      H1            -16.8845763879      -14.4363800314      -62.4633836493  TIP3      3576            0.0000000000
     19304      3640  TIP3      H2            -16.9933301735      -13.7965087183      -61.0648668103  TIP3      3576            0.0000000000
     19305      3641  TIP3      OH2           -10.9671192460       -8.8987367089      -60.9560847437  TIP3      3577            0.0000000000
     19306      3641  TIP3      H1            -11.2544556438       -8.2626774273      -60.2877582761  TIP3      3577            0.0000000000
     19307      3641  TIP3      H2            -11.2192166801       -9.7550249900      -60.5423863889  TIP3      3577            0.0000000000
     19308      3642  TIP3      OH2           -16.4507098350      -10.0487215808      -56.9684697393  TIP3      3578            0.0000000000
     19309      3642  TIP3      H1            -16.9099577879       -9.3396871274      -56.4692725879  TIP3      3578            0.0000000000
     19310      3642  TIP3      H2            -17.1025663361      -10.2666436304      -57.6781595013  TIP3      3578            0.0000000000
     19311      3643  TIP3      OH2           -10.4804372024      -14.6794912383      -69.6075295122  TIP3      3579            0.0000000000
     19312      3643  TIP3      H1             -9.9428330696      -14.4703880991      -68.8019673712  TIP3      3579            0.0000000000
     19313      3643  TIP3      H2            -10.0637717878      -14.1308439318      -70.3004101114  TIP3      3579            0.0000000000
     19314      3644  TIP3      OH2           -19.5011195936      -13.8813712234      -57.8247638704  TIP3      3580            0.0000000000
     19315      3644  TIP3      H1            -19.4366072185      -13.1902191356      -57.1395042709  TIP3      3580            0.0000000000
     19316      3644  TIP3      H2            -20.4609307298      -13.8249166714      -58.0003120449  TIP3      3580            0.0000000000
     19317      3645  TIP3      OH2           -12.7498276613       -7.9623519121      -66.1287972907  TIP3      3581            0.0000000000
     19318      3645  TIP3      H1            -12.3397927298       -7.6621613351      -65.3091584167  TIP3      3581            0.0000000000
     19319      3645  TIP3      H2            -13.3029191170       -7.2097320991      -66.3692481006  TIP3      3581            0.0000000000
     19320      3646  TIP3      OH2           -18.1893210394       -8.0508130229      -56.2211075504  TIP3      3582            0.0000000000
     19321      3646  TIP3      H1            -18.2776071391       -8.1195395057      -57.1892860784  TIP3      3582            0.0000000000
     19322      3646  TIP3      H2            -19.1134012377       -8.1755109968      -55.9276080417  TIP3      3582            0.0000000000
     19323      3647  TIP3      OH2            -6.7357706380      -23.0121015523      -69.7466520750  TIP3      3583            0.0000000000
     19324      3647  TIP3      H1             -7.6226044198      -22.8695391009      -69.3873684257  TIP3      3583            0.0000000000
     19325      3647  TIP3      H2             -6.5309093705      -22.1184778243      -70.0550933950  TIP3      3583            0.0000000000
     19326      3648  TIP3      OH2           -18.7147884984      -14.1977764745      -67.7476168384  TIP3      3584            0.0000000000
     19327      3648  TIP3      H1            -19.0609510711      -13.4282236141      -68.2371704188  TIP3      3584            0.0000000000
     19328      3648  TIP3      H2            -19.3693624451      -14.8818488485      -67.9116265678  TIP3      3584            0.0000000000
     19329      3649  TIP3      OH2            -5.6308800021       -8.5569022170      -71.1883935139  TIP3      3585            0.0000000000
     19330      3649  TIP3      H1             -5.4478827056       -7.6118538505      -71.0840850027  TIP3      3585            0.0000000000
     19331      3649  TIP3      H2             -4.7462913533       -8.9586467829      -71.3061508325  TIP3      3585            0.0000000000
     19332      3650  TIP3      OH2           -22.6023714424      -11.7235984559      -58.8312028303  TIP3      3586            0.0000000000
     19333      3650  TIP3      H1            -22.9721878293      -11.8548986865      -59.7116247460  TIP3      3586            0.0000000000
     19334      3650  TIP3      H2            -22.5357252055      -12.6507095896      -58.5580609799  TIP3      3586            0.0000000000
     19335      3651  TIP3      OH2           -22.8628443986       -9.0064097919      -62.1509639055  TIP3      3587            0.0000000000
     19336      3651  TIP3      H1            -21.9127188521       -9.1807841172      -62.0756773606  TIP3      3587            0.0000000000
     19337      3651  TIP3      H2            -23.0112252781       -8.3122675750      -61.4945785976  TIP3      3587            0.0000000000
     19338      3652  TIP3      OH2            -4.6815286685       -8.3405415000      -56.3386385772  TIP3      3588            0.0000000000
     19339      3652  TIP3      H1             -4.8120330561       -9.2966328099      -56.3778645045  TIP3      3588            0.0000000000
     19340      3652  TIP3      H2             -5.5595934017       -8.0827560857      -55.9703789928  TIP3      3588            0.0000000000
     19341      3653  TIP3      OH2           -13.7289003665       -8.8133318873      -57.4856449975  TIP3      3589            0.0000000000
     19342      3653  TIP3      H1            -13.6806860575       -7.9692011655      -56.9776500881  TIP3      3589            0.0000000000
     19343      3653  TIP3      H2            -14.5993119028       -9.1839108365      -57.2406496797  TIP3      3589            0.0000000000
     19344      3654  TIP3      OH2           -13.2802932047       -5.0883802844      -67.7319564188  TIP3      3590            0.0000000000
     19345      3654  TIP3      H1            -13.3807258606       -5.0960234149      -68.6966656265  TIP3      3590            0.0000000000
     19346      3654  TIP3      H2            -13.2437722846       -4.1342169189      -67.5244350572  TIP3      3590            0.0000000000
     19347      3655  TIP3      OH2           -19.6336641146       -6.1673946729      -65.8553792263  TIP3      3591            0.0000000000
     19348      3655  TIP3      H1            -19.4879477985       -6.6020548588      -64.9849464813  TIP3      3591            0.0000000000
     19349      3655  TIP3      H2            -20.4580009852       -6.6152200801      -66.1120129147  TIP3      3591            0.0000000000
     19350      3656  TIP3      OH2           -10.3304339409       -5.8423077540      -70.7175842102  TIP3      3592            0.0000000000
     19351      3656  TIP3      H1             -9.7907952069       -6.5314337560      -71.1851468483  TIP3      3592            0.0000000000
     19352      3656  TIP3      H2            -10.1743891089       -6.0952114136      -69.7869165386  TIP3      3592            0.0000000000
     19353      3657  TIP3      OH2           -10.5251423924       -5.9116049417      -67.9050663766  TIP3      3593            0.0000000000
     19354      3657  TIP3      H1            -11.4870259526       -5.8351638790      -67.7525306620  TIP3      3593            0.0000000000
     19355      3657  TIP3      H2            -10.3120005032       -6.6855098119      -67.3676957431  TIP3      3593            0.0000000000
     19356      3658  TIP3      OH2            -7.5367850666      -16.8905651705      -55.8864407013  TIP3      3594            0.0000000000
     19357      3658  TIP3      H1             -8.0292600561      -16.4395098238      -56.5937470857  TIP3      3594            0.0000000000
     19358      3658  TIP3      H2             -7.5656861619      -17.8119792023      -56.1870683354  TIP3      3594            0.0000000000
     19359      3659  TIP3      OH2           -20.3770925480      -10.4386757315      -57.8470920500  TIP3      3595            0.0000000000
     19360      3659  TIP3      H1            -20.2301652410      -10.7795279784      -56.9428510503  TIP3      3595            0.0000000000
     19361      3659  TIP3      H2            -21.2582211589      -10.8263690329      -58.0662169789  TIP3      3595            0.0000000000
     19362      3660  TIP3      OH2           -18.3474371040      -22.2103543583      -61.8477332167  TIP3      3596            0.0000000000
     19363      3660  TIP3      H1            -19.0839281517      -21.9899960679      -62.4445205830  TIP3      3596            0.0000000000
     19364      3660  TIP3      H2            -18.1086095662      -21.3119810819      -61.5127891782  TIP3      3596            0.0000000000
     19365      3661  TIP3      OH2           -13.0446449362      -22.0522144825      -58.3324547725  TIP3      3597            0.0000000000
     19366      3661  TIP3      H1            -12.6012573384      -22.7385100418      -57.8242356591  TIP3      3597            0.0000000000
     19367      3661  TIP3      H2            -13.9335214059      -22.4157563550      -58.4052863881  TIP3      3597            0.0000000000
     19368      3662  TIP3      OH2            -9.7685498287      -18.5048207836      -57.6419344205  TIP3      3598            0.0000000000
     19369      3662  TIP3      H1            -10.3921494569      -18.6962669650      -56.9064313913  TIP3      3598            0.0000000000
     19370      3662  TIP3      H2             -9.9516482264      -17.5807731614      -57.8977744415  TIP3      3598            0.0000000000
     19371      3663  TIP3      OH2            -9.0213213601      -13.5521773117      -71.8228368870  TIP3      3599            0.0000000000
     19372      3663  TIP3      H1             -8.9444618305      -13.6463373316      -72.7845920856  TIP3      3599            0.0000000000
     19373      3663  TIP3      H2             -8.1777847917      -13.0936265228      -71.6473603105  TIP3      3599            0.0000000000
     19374      3664  TIP3      OH2           -13.3735155386      -19.7550544329      -71.1428121150  TIP3      3600            0.0000000000
     19375      3664  TIP3      H1            -13.7919989030      -19.8510128828      -70.2681276208  TIP3      3600            0.0000000000
     19376      3664  TIP3      H2            -13.6841443555      -20.5792400169      -71.5614505715  TIP3      3600            0.0000000000
     19377      3665  TIP3      OH2           -17.6087721333      -16.9373366372      -60.6369887675  TIP3      3601            0.0000000000
     19378      3665  TIP3      H1            -18.3289785561      -17.0078396660      -59.9953272194  TIP3      3601            0.0000000000
     19379      3665  TIP3      H2            -17.6965434838      -16.0451298212      -61.0292038255  TIP3      3601            0.0000000000
     19380      3666  TIP3      OH2           -17.6152315967      -16.8672257580      -65.8264334396  TIP3      3602            0.0000000000
     19381      3666  TIP3      H1            -18.5678233579      -17.1261002274      -65.8980657531  TIP3      3602            0.0000000000
     19382      3666  TIP3      H2            -17.2928693193      -17.2187057225      -66.6794317541  TIP3      3602            0.0000000000
     19383      3667  TIP3      OH2           -12.1159357299      -16.4042854102      -67.1117766363  TIP3      3603            0.0000000000
     19384      3667  TIP3      H1            -12.5005772772      -15.5539263707      -67.4239416277  TIP3      3603            0.0000000000
     19385      3667  TIP3      H2            -11.4263093766      -16.5589965686      -67.7780564551  TIP3      3603            0.0000000000
     19386      3668  TIP3      OH2           -13.0930797378      -16.1793063015      -55.6046451753  TIP3      3604            0.0000000000
     19387      3668  TIP3      H1            -13.5852303531      -16.9980830191      -55.3356534548  TIP3      3604            0.0000000000
     19388      3668  TIP3      H2            -12.2474455964      -16.2757516213      -55.1374959188  TIP3      3604            0.0000000000
     19389      3669  TIP3      OH2           -11.0559390316      -16.8928103975      -64.1753317361  TIP3      3605            0.0000000000
     19390      3669  TIP3      H1            -11.3989149913      -16.3273242993      -64.8866679134  TIP3      3605            0.0000000000
     19391      3669  TIP3      H2            -11.0089813707      -17.7420361511      -64.6416356039  TIP3      3605            0.0000000000
     19392      3670  TIP3      OH2           -20.1067647098      -16.7185532317      -58.9800775609  TIP3      3606            0.0000000000
     19393      3670  TIP3      H1            -19.9263336185      -16.3842464362      -58.0894849095  TIP3      3606            0.0000000000
     19394      3670  TIP3      H2            -20.3758868554      -17.6367338824      -58.8041299790  TIP3      3606            0.0000000000
     19395      3671  TIP3      OH2           -16.6440873377      -19.0412196794      -71.7881420330  TIP3      3607            0.0000000000
     19396      3671  TIP3      H1            -17.0169216280      -19.8261421834      -71.3368453989  TIP3      3607            0.0000000000
     19397      3671  TIP3      H2            -17.1233415352      -19.0400859178      -72.6172619991  TIP3      3607            0.0000000000
     19398      3672  TIP3      OH2           -22.0975303789      -19.5303135401      -65.2992434642  TIP3      3608            0.0000000000
     19399      3672  TIP3      H1            -22.3760551985      -19.7080774024      -64.3853206046  TIP3      3608            0.0000000000
     19400      3672  TIP3      H2            -22.7397495726      -20.0720139579      -65.7877075533  TIP3      3608            0.0000000000
     19401      3673  TIP3      OH2           -22.0751035053      -18.8238615812      -69.5535004367  TIP3      3609            0.0000000000
     19402      3673  TIP3      H1            -21.5062411199      -18.3615163749      -70.2033725538  TIP3      3609            0.0000000000
     19403      3673  TIP3      H2            -22.7795724776      -18.1959397273      -69.4545303416  TIP3      3609            0.0000000000
     19404      3674  TIP3      OH2           -11.9063321627      -15.3295267747      -59.6768340115  TIP3      3610            0.0000000000
     19405      3674  TIP3      H1            -11.5159958776      -16.0319113222      -60.2440146782  TIP3      3610            0.0000000000
     19406      3674  TIP3      H2            -12.3977202986      -15.8515457647      -59.0112746011  TIP3      3610            0.0000000000
     19407      3675  TIP3      OH2           -15.1023367531      -19.2714549660      -64.7841120581  TIP3      3611            0.0000000000
     19408      3675  TIP3      H1            -16.0129409527      -19.4031139387      -64.4455786345  TIP3      3611            0.0000000000
     19409      3675  TIP3      H2            -14.6366271629      -19.5524530556      -63.9751063777  TIP3      3611            0.0000000000
     19410      3676  TIP3      OH2           -20.1390984164      -17.7357909921      -66.0181992007  TIP3      3612            0.0000000000
     19411      3676  TIP3      H1            -21.0864725266      -17.6801847916      -66.2608046445  TIP3      3612            0.0000000000
     19412      3676  TIP3      H2            -19.9619093831      -18.6665595868      -66.2587231019  TIP3      3612            0.0000000000
     19413      3677  TIP3      OH2           -16.6608932753      -17.7015162267      -68.2996342132  TIP3      3613            0.0000000000
     19414      3677  TIP3      H1            -15.6985312388      -17.6499338873      -68.1767185633  TIP3      3613            0.0000000000
     19415      3677  TIP3      H2            -16.8723573772      -17.0717350315      -69.0135096178  TIP3      3613            0.0000000000
     19416      3678  TIP3      OH2           -10.6608995919      -20.2062593210      -61.5911476820  TIP3      3614            0.0000000000
     19417      3678  TIP3      H1            -11.3498917330      -20.0757537980      -60.9068407503  TIP3      3614            0.0000000000
     19418      3678  TIP3      H2            -11.1920191321      -20.4415894797      -62.3689099498  TIP3      3614            0.0000000000
     19419      3679  TIP3      OH2           -18.0299198013      -16.4484107376      -70.7536552097  TIP3      3615            0.0000000000
     19420      3679  TIP3      H1            -18.4384960487      -16.9712863644      -71.4468441377  TIP3      3615            0.0000000000
     19421      3679  TIP3      H2            -17.1262582025      -16.3590136727      -71.1237199099  TIP3      3615            0.0000000000
     19422      3680  TIP3      OH2            -7.4980399043       -4.4788965468      -55.2323206824  TIP3      3616            0.0000000000
     19423      3680  TIP3      H1             -7.2373666270       -4.0960407599      -56.0913061972  TIP3      3616            0.0000000000
     19424      3680  TIP3      H2             -6.7751709708       -4.1516554837      -54.6768961432  TIP3      3616            0.0000000000
     19425      3681  TIP3      OH2           -19.7498028116      -12.0585827407      -55.6671245343  TIP3      3617            0.0000000000
     19426      3681  TIP3      H1            -19.0340492938      -11.7633299534      -55.0783336882  TIP3      3617            0.0000000000
     19427      3681  TIP3      H2            -20.5281555483      -11.9378326488      -55.0672340231  TIP3      3617            0.0000000000
     19428      3682  TIP3      OH2           -13.7829909442      -16.5585935584      -62.8987393162  TIP3      3618            0.0000000000
     19429      3682  TIP3      H1            -13.2542471700      -17.1599092273      -63.4292935598  TIP3      3618            0.0000000000
     19430      3682  TIP3      H2            -14.0307567780      -17.1307355948      -62.1422390917  TIP3      3618            0.0000000000
     19431      3683  TIP3      OH2           -18.8995014306      -20.4489254837      -66.5264736015  TIP3      3619            0.0000000000
     19432      3683  TIP3      H1            -19.1693890272      -21.3740013170      -66.4236107662  TIP3      3619            0.0000000000
     19433      3683  TIP3      H2            -18.0403598729      -20.5622493842      -66.9615014308  TIP3      3619            0.0000000000
     19434      3684  TIP3      OH2           -14.9139292134      -17.8540024501      -60.5230083559  TIP3      3620            0.0000000000
     19435      3684  TIP3      H1            -15.8894493063      -17.7852603869      -60.4410911748  TIP3      3620            0.0000000000
     19436      3684  TIP3      H2            -14.5867641335      -17.8256788162      -59.6129484079  TIP3      3620            0.0000000000
     19437      3685  TIP3      OH2           -14.5813545494      -12.0330166757      -68.7992882794  TIP3      3621            0.0000000000
     19438      3685  TIP3      H1            -15.3876239552      -12.5066274189      -69.1098732226  TIP3      3621            0.0000000000
     19439      3685  TIP3      H2            -14.8210981062      -11.8745640765      -67.8654660960  TIP3      3621            0.0000000000
     19440      3686  TIP3      OH2            -7.3607056913      -12.8055345545      -59.9944326539  TIP3      3622            0.0000000000
     19441      3686  TIP3      H1             -6.8274406906      -12.3184705022      -60.6518244952  TIP3      3622            0.0000000000
     19442      3686  TIP3      H2             -8.2312879846      -12.8092518445      -60.4413649392  TIP3      3622            0.0000000000
     19443      3687  TIP3      OH2           -10.7298774061      -19.1935179158      -70.6922378867  TIP3      3623            0.0000000000
     19444      3687  TIP3      H1            -11.6947833318      -19.0942548470      -70.7866934678  TIP3      3623            0.0000000000
     19445      3687  TIP3      H2            -10.4195669160      -18.3818227472      -70.2498895265  TIP3      3623            0.0000000000
     19446      3688  TIP3      OH2           -13.0935428813      -11.7315189707      -57.5527579346  TIP3      3624            0.0000000000
     19447      3688  TIP3      H1            -13.4420424695      -12.1968060556      -56.7842159258  TIP3      3624            0.0000000000
     19448      3688  TIP3      H2            -13.3871194306      -10.8246430821      -57.4121897895  TIP3      3624            0.0000000000
     19449      3689  TIP3      OH2           -10.0299214784      -17.2833640711      -68.9635086421  TIP3      3625            0.0000000000
     19450      3689  TIP3      H1             -9.1525929351      -17.4322217719      -68.5431594888  TIP3      3625            0.0000000000
     19451      3689  TIP3      H2             -9.8950858501      -16.4561074892      -69.4587060216  TIP3      3625            0.0000000000
     19452      3690  TIP3      OH2           -19.4691641273      -12.6128556502      -62.9751797642  TIP3      3626            0.0000000000
     19453      3690  TIP3      H1            -18.8529138754      -12.7070734421      -63.7234163411  TIP3      3626            0.0000000000
     19454      3690  TIP3      H2            -19.3857317038      -13.4834349242      -62.5481104631  TIP3      3626            0.0000000000
     19455      3691  TIP3      OH2           -12.4815626516      -10.6210685678      -69.8041924271  TIP3      3627            0.0000000000
     19456      3691  TIP3      H1            -12.8226464715       -9.7660370700      -69.4829901353  TIP3      3627            0.0000000000
     19457      3691  TIP3      H2            -13.2236206961      -11.2180938464      -69.5714355643  TIP3      3627            0.0000000000
     19458      3692  TIP3      OH2           -22.2318191233      -14.2094635433      -57.6782372349  TIP3      3628            0.0000000000
     19459      3692  TIP3      H1            -22.0928851791      -14.6305749232      -56.8083290666  TIP3      3628            0.0000000000
     19460      3692  TIP3      H2            -23.0317743287      -14.6894814549      -57.9899897287  TIP3      3628            0.0000000000
     19461      3693  TIP3      OH2           -15.4715251663      -14.6601211537      -55.5628120255  TIP3      3629            0.0000000000
     19462      3693  TIP3      H1            -15.8137736236      -15.0192261223      -56.4009256663  TIP3      3629            0.0000000000
     19463      3693  TIP3      H2            -14.5626724030      -15.0179839080      -55.5796587432  TIP3      3629            0.0000000000
     19464      3694  TIP3      OH2           -10.7588103530       -9.3285028628      -57.5795285233  TIP3      3630            0.0000000000
     19465      3694  TIP3      H1            -11.6838067533       -9.1676835552      -57.8302577339  TIP3      3630            0.0000000000
     19466      3694  TIP3      H2            -10.8138928466       -9.0335632292      -56.6491371837  TIP3      3630            0.0000000000
     19467      3695  TIP3      OH2            -5.1182530977      -17.1441218446      -69.1956271573  TIP3      3631            0.0000000000
     19468      3695  TIP3      H1             -5.7255417041      -17.4193109193      -69.9165204161  TIP3      3631            0.0000000000
     19469      3695  TIP3      H2             -5.0487902605      -16.1998616503      -69.4444467105  TIP3      3631            0.0000000000
     19470      3696  TIP3      OH2            -5.1293944722      -11.3087912489      -56.4390545587  TIP3      3632            0.0000000000
     19471      3696  TIP3      H1             -6.0259290049      -11.0786820543      -56.7848784380  TIP3      3632            0.0000000000
     19472      3696  TIP3      H2             -4.5938470309      -11.3652694405      -57.2615315423  TIP3      3632            0.0000000000
     19473      3697  TIP3      OH2            -6.8375176383       -8.3680404675      -68.8414894103  TIP3      3633            0.0000000000
     19474      3697  TIP3      H1             -7.2254949496       -9.1923347472      -68.5338792493  TIP3      3633            0.0000000000
     19475      3697  TIP3      H2             -6.5244040135       -8.5756076985      -69.7474548769  TIP3      3633            0.0000000000
     19476      3698  TIP3      OH2            -9.6095821142      -13.5202524694      -61.7175918561  TIP3      3634            0.0000000000
     19477      3698  TIP3      H1            -10.5518649864      -13.7215116907      -61.8418989238  TIP3      3634            0.0000000000
     19478      3698  TIP3      H2             -9.1792667693      -14.2633365355      -62.1818101282  TIP3      3634            0.0000000000
     19479      3699  TIP3      OH2           -17.1104993839       -9.1758144065      -65.5763230431  TIP3      3635            0.0000000000
     19480      3699  TIP3      H1            -16.6090886276       -8.3729598339      -65.8026282253  TIP3      3635            0.0000000000
     19481      3699  TIP3      H2            -17.9759587054       -8.9563192997      -65.9440680141  TIP3      3635            0.0000000000
     19482      3700  TIP3      OH2           -21.4471476288      -14.3794371927      -70.9814492990  TIP3      3636            0.0000000000
     19483      3700  TIP3      H1            -20.7546543732      -13.7352536323      -70.7050755747  TIP3      3636            0.0000000000
     19484      3700  TIP3      H2            -22.2409961416      -13.9000617966      -70.6978714191  TIP3      3636            0.0000000000
     19485      3701  TIP3      OH2           -15.7110538404      -11.5139739715      -66.1213902188  TIP3      3637            0.0000000000
     19486      3701  TIP3      H1            -16.0470207022      -10.6033542600      -66.0188165533  TIP3      3637            0.0000000000
     19487      3701  TIP3      H2            -16.4058155030      -12.0288727051      -65.6633001643  TIP3      3637            0.0000000000
     19488      3702  TIP3      OH2           -15.2599833516       -7.3160111545      -59.6456141537  TIP3      3638            0.0000000000
     19489      3702  TIP3      H1            -14.7624078239       -6.5479427939      -59.9686874705  TIP3      3638            0.0000000000
     19490      3702  TIP3      H2            -14.6192954813       -7.6898297856      -59.0124601135  TIP3      3638            0.0000000000
     19491      3703  TIP3      OH2           -17.0205963870       -6.5485788792      -66.5618206762  TIP3      3639            0.0000000000
     19492      3703  TIP3      H1            -17.9832161133       -6.4002985711      -66.4261951636  TIP3      3639            0.0000000000
     19493      3703  TIP3      H2            -16.6417592016       -5.7013093226      -66.2521640626  TIP3      3639            0.0000000000
     19494      3704  TIP3      OH2           -11.7623390119      -11.3643896370      -60.0800279889  TIP3      3640            0.0000000000
     19495      3704  TIP3      H1            -12.0313819846      -11.5392973639      -59.1528155994  TIP3      3640            0.0000000000
     19496      3704  TIP3      H2            -11.1024587762      -12.0580095109      -60.2495982390  TIP3      3640            0.0000000000
     19497      3705  TIP3      OH2            -9.4124175346      -10.2207986239      -70.8660070705  TIP3      3641            0.0000000000
     19498      3705  TIP3      H1             -9.0877924712      -10.7826173397      -70.1396524849  TIP3      3641            0.0000000000
     19499      3705  TIP3      H2            -10.3465263441      -10.4597088331      -70.8771965731  TIP3      3641            0.0000000000
     19500      3706  TIP3      OH2            -8.8740258068       -6.7643208843      -57.5956293485  TIP3      3642            0.0000000000
     19501      3706  TIP3      H1             -9.5921586364       -7.2478243178      -58.0454840499  TIP3      3642            0.0000000000
     19502      3706  TIP3      H2             -8.7158212988       -6.0630527696      -58.2640824163  TIP3      3642            0.0000000000
     19503      3707  TIP3      OH2            -4.8613851290       -5.9037267789      -70.7001594829  TIP3      3643            0.0000000000
     19504      3707  TIP3      H1             -4.1874619642       -5.2307397489      -70.8865369467  TIP3      3643            0.0000000000
     19505      3707  TIP3      H2             -5.6023003334       -5.3184815583      -70.4171500576  TIP3      3643            0.0000000000
     19506      3708  TIP3      OH2           -20.8329485309      -19.5344695289      -58.2546127796  TIP3      3644            0.0000000000
     19507      3708  TIP3      H1            -21.7110056484      -19.1516250652      -58.0648555810  TIP3      3644            0.0000000000
     19508      3708  TIP3      H2            -20.9082253361      -20.3597098510      -57.7489154662  TIP3      3644            0.0000000000
     19509      3709  TIP3      OH2            -8.6225621041      -11.6435883010      -68.6980652324  TIP3      3645            0.0000000000
     19510      3709  TIP3      H1             -8.8545847319      -12.4634451791      -68.2203007251  TIP3      3645            0.0000000000
     19511      3709  TIP3      H2             -7.6659529521      -11.5967530695      -68.5426448514  TIP3      3645            0.0000000000
     19512      3710  TIP3      OH2           -21.2389529064       -7.7720123275      -59.7195502275  TIP3      3646            0.0000000000
     19513      3710  TIP3      H1            -20.8403560985       -8.6552025227      -59.7709608029  TIP3      3646            0.0000000000
     19514      3710  TIP3      H2            -20.8797364768       -7.4442553804      -58.8922356711  TIP3      3646            0.0000000000
     19515      3711  TIP3      OH2           -16.4988962046       -9.6307167250      -70.0172710641  TIP3      3647            0.0000000000
     19516      3711  TIP3      H1            -16.1840046208      -10.1799172121      -69.2924513861  TIP3      3647            0.0000000000
     19517      3711  TIP3      H2            -16.4136809665       -8.7159031384      -69.6879138754  TIP3      3647            0.0000000000
     19518      3712  TIP3      OH2           -19.9687733764      -12.4108311209      -69.6540610597  TIP3      3648            0.0000000000
     19519      3712  TIP3      H1            -20.6418442992      -11.9849050470      -69.0636409589  TIP3      3648            0.0000000000
     19520      3712  TIP3      H2            -19.3715224041      -11.6504943573      -69.8040916894  TIP3      3648            0.0000000000
     19521      3713  TIP3      OH2           -12.0277747995      -19.7243675047      -59.1853955985  TIP3      3649            0.0000000000
     19522      3713  TIP3      H1            -11.3347807167      -19.7217712425      -58.5199015479  TIP3      3649            0.0000000000
     19523      3713  TIP3      H2            -12.4675401370      -20.5924997302      -59.0153774061  TIP3      3649            0.0000000000
     19524      3714  TIP3      OH2           -11.2109939664      -20.2198174308      -68.1501249680  TIP3      3650            0.0000000000
     19525      3714  TIP3      H1            -11.1280333092      -19.6563215164      -68.9401372274  TIP3      3650            0.0000000000
     19526      3714  TIP3      H2            -10.8034183677      -19.6615230641      -67.4613241426  TIP3      3650            0.0000000000
     19527      3715  TIP3      OH2           -13.7189799046       -8.0128784950      -69.4247115164  TIP3      3651            0.0000000000
     19528      3715  TIP3      H1            -14.5252488019       -7.4787170307      -69.2682762584  TIP3      3651            0.0000000000
     19529      3715  TIP3      H2            -13.1360151302       -7.3884719439      -69.8709280943  TIP3      3651            0.0000000000
     19530      3716  TIP3      OH2           -14.1249121712      -18.4531257016      -67.2908519353  TIP3      3652            0.0000000000
     19531      3716  TIP3      H1            -13.3791575777      -17.8245672883      -67.2681045938  TIP3      3652            0.0000000000
     19532      3716  TIP3      H2            -14.4142518829      -18.5711072988      -66.3600023775  TIP3      3652            0.0000000000
     19533      3717  TIP3      OH2           -13.4965228195      -17.2919986636      -58.1217124509  TIP3      3653            0.0000000000
     19534      3717  TIP3      H1            -13.4546826901      -16.8233139853      -57.2661896473  TIP3      3653            0.0000000000
     19535      3717  TIP3      H2            -12.9542697158      -18.0945152109      -58.0390766462  TIP3      3653            0.0000000000
     19536      3718  TIP3      OH2           -13.2622911314      -21.3453119603      -66.4255153251  TIP3      3654            0.0000000000
     19537      3718  TIP3      H1            -13.6121977200      -20.6847636003      -65.8067647787  TIP3      3654            0.0000000000
     19538      3718  TIP3      H2            -12.6091706981      -20.8104000533      -66.9183373157  TIP3      3654            0.0000000000
     19539      3719  TIP3      OH2           -16.2618121176       -6.9370870577      -69.2845418470  TIP3      3655            0.0000000000
     19540      3719  TIP3      H1            -16.1003777224       -6.1292578356      -69.8154179956  TIP3      3655            0.0000000000
     19541      3719  TIP3      H2            -16.5556975112       -6.5860415159      -68.4174524453  TIP3      3655            0.0000000000
     19542      3720  TIP3      OH2           -17.6799124898      -20.2505101413      -69.6878311512  TIP3      3656            0.0000000000
     19543      3720  TIP3      H1            -17.6757073424      -19.3530988636      -69.3172915932  TIP3      3656            0.0000000000
     19544      3720  TIP3      H2            -16.7647138700      -20.5197189395      -69.4825899167  TIP3      3656            0.0000000000
     19545      3721  TIP3      OH2            -7.3971378452      -19.5150778795      -57.2967714803  TIP3      3657            0.0000000000
     19546      3721  TIP3      H1             -8.3300743966      -19.2182947288      -57.4182612931  TIP3      3657            0.0000000000
     19547      3721  TIP3      H2             -7.1214698355      -19.5796824066      -58.2263545729  TIP3      3657            0.0000000000
     19548      3722  TIP3      OH2            -8.7794758317      -15.7283131374      -63.3007417463  TIP3      3658            0.0000000000
     19549      3722  TIP3      H1             -9.6027269999      -16.1894786691      -63.5467293076  TIP3      3658            0.0000000000
     19550      3722  TIP3      H2             -8.2782603264      -16.4015812148      -62.7841054787  TIP3      3658            0.0000000000
     19551      3723  TIP3      OH2           -19.3177407015       -9.8046969209      -70.6124342353  TIP3      3659            0.0000000000
     19552      3723  TIP3      H1            -18.6544483907       -9.1600764330      -70.3496170780  TIP3      3659            0.0000000000
     19553      3723  TIP3      H2            -18.8006720722      -10.2541497595      -71.3142971450  TIP3      3659            0.0000000000
     19554      3724  TIP3      OH2           -21.1047560336      -17.1073870744      -71.4519570322  TIP3      3660            0.0000000000
     19555      3724  TIP3      H1            -21.0958067707      -16.1523109922      -71.2308790667  TIP3      3660            0.0000000000
     19556      3724  TIP3      H2            -21.9697601836      -17.2418215954      -71.8447052074  TIP3      3660            0.0000000000
     19557      3725  TIP3      OH2            -7.7094020864       -6.4578186645      -61.6201381855  TIP3      3661            0.0000000000
     19558      3725  TIP3      H1             -7.7898308873       -5.7815031483      -62.3177046877  TIP3      3661            0.0000000000
     19559      3725  TIP3      H2             -6.7437857442       -6.4214213757      -61.4443125869  TIP3      3661            0.0000000000
     19560      3726  TIP3      OH2           -20.6407344148      -22.2110564241      -62.9776621909  TIP3      3662            0.0000000000
     19561      3726  TIP3      H1            -20.5122153710      -22.3458147096      -63.9377347616  TIP3      3662            0.0000000000
     19562      3726  TIP3      H2            -20.6309733832      -23.1229680739      -62.6230148831  TIP3      3662            0.0000000000
     19563      3727  TIP3      OH2           -21.2803486914       -8.3816327618      -66.5716175226  TIP3      3663            0.0000000000
     19564      3727  TIP3      H1            -22.1427946330       -7.9812145650      -66.7192840381  TIP3      3663            0.0000000000
     19565      3727  TIP3      H2            -20.8374386982       -8.0564992989      -67.3650251437  TIP3      3663            0.0000000000
     19566      3728  TIP3      OH2           -22.0275896955       -5.7965012968      -55.4305369340  TIP3      3664            0.0000000000
     19567      3728  TIP3      H1            -21.4774153280       -5.9104703932      -54.6288114473  TIP3      3664            0.0000000000
     19568      3728  TIP3      H2            -22.4649496180       -6.6536139818      -55.4704656791  TIP3      3664            0.0000000000
     19569      3729  TIP3      OH2           -17.3627651445       -6.8746656122      -53.8054045284  TIP3      3665            0.0000000000
     19570      3729  TIP3      H1            -16.6144520358       -7.3732470566      -53.4611586966  TIP3      3665            0.0000000000
     19571      3729  TIP3      H2            -17.4326058721       -7.1893898086      -54.7257316867  TIP3      3665            0.0000000000
     19572      3730  TIP3      OH2           -13.3632758794       -7.4100749418      -72.4616943707  TIP3      3666            0.0000000000
     19573      3730  TIP3      H1            -13.9256698689       -8.0567444173      -72.0196550855  TIP3      3666            0.0000000000
     19574      3730  TIP3      H2            -12.5227771139       -7.8760114793      -72.5536614931  TIP3      3666            0.0000000000
     19575      3731  TIP3      OH2           -10.9181352681       -8.4599353400      -54.9916256427  TIP3      3667            0.0000000000
     19576      3731  TIP3      H1            -11.2267986414       -9.3485339407      -54.7107806726  TIP3      3667            0.0000000000
     19577      3731  TIP3      H2            -10.1278874280       -8.3452188527      -54.4276972624  TIP3      3667            0.0000000000
     19578      3732  TIP3      OH2            -8.7170346626       -7.5684228651      -72.0863494968  TIP3      3668            0.0000000000
     19579      3732  TIP3      H1             -8.4163510889       -8.3980357439      -71.6578187408  TIP3      3668            0.0000000000
     19580      3732  TIP3      H2             -7.9616346010       -7.1661263749      -72.5365291496  TIP3      3668            0.0000000000
     19581      3733  TIP3      OH2           -22.0029354702      -11.9787142663      -54.3961693414  TIP3      3669            0.0000000000
     19582      3733  TIP3      H1            -21.9837952679      -12.9258440635      -54.6065623425  TIP3      3669            0.0000000000
     19583      3733  TIP3      H2            -22.8858650795      -11.7573277551      -54.7622245436  TIP3      3669            0.0000000000
     19584      3734  TIP3      OH2           -17.7046757743      -11.8066846848      -71.9933612679  TIP3      3670            0.0000000000
     19585      3734  TIP3      H1            -17.5647082577      -12.6873379454      -71.6425025074  TIP3      3670            0.0000000000
     19586      3734  TIP3      H2            -17.1832261872      -11.7955175966      -72.8129337960  TIP3      3670            0.0000000000
     19587      3735  TIP3      OH2           -15.4526202154      -12.0061227335      -54.9958119474  TIP3      3671            0.0000000000
     19588      3735  TIP3      H1            -15.7820065805      -11.6736187384      -55.8535529021  TIP3      3671            0.0000000000
     19589      3735  TIP3      H2            -15.4018548402      -12.9876974116      -55.1192983010  TIP3      3671            0.0000000000
     19590      3736  TIP3      OH2            -9.7758260235      -12.1776780250      -57.5870352186  TIP3      3672            0.0000000000
     19591      3736  TIP3      H1             -8.9665845996      -11.6196312558      -57.6178759608  TIP3      3672            0.0000000000
     19592      3736  TIP3      H2            -10.4491290102      -11.4795509633      -57.5696800478  TIP3      3672            0.0000000000
     19593      3737  TIP3      OH2           -21.4391162495      -14.8797853808      -54.9771024386  TIP3      3673            0.0000000000
     19594      3737  TIP3      H1            -20.7523900420      -15.5626232918      -55.0733513407  TIP3      3673            0.0000000000
     19595      3737  TIP3      H2            -21.3794499641      -14.7228093486      -54.0198243965  TIP3      3673            0.0000000000
     19596      3738  TIP3      OH2           -16.5563084025      -13.6177415011      -69.8774419801  TIP3      3674            0.0000000000
     19597      3738  TIP3      H1            -17.1427440981      -14.1501856535      -69.3149793347  TIP3      3674            0.0000000000
     19598      3738  TIP3      H2            -16.2716001908      -14.2775663725      -70.5461390577  TIP3      3674            0.0000000000
     19599      3739  TIP3      OH2           -17.3222325387      -15.8398578274      -57.6399300588  TIP3      3675            0.0000000000
     19600      3739  TIP3      H1            -17.9348009410      -15.1217476860      -57.3931786041  TIP3      3675            0.0000000000
     19601      3739  TIP3      H2            -16.9319479674      -15.4930777633      -58.4623205744  TIP3      3675            0.0000000000
     19602      3740  TIP3      OH2           -15.5707364214      -15.5517214686      -71.5718377370  TIP3      3676            0.0000000000
     19603      3740  TIP3      H1            -15.6807797912      -15.5014837364      -72.5453739685  TIP3      3676            0.0000000000
     19604      3740  TIP3      H2            -14.6148338474      -15.3425707997      -71.5406269783  TIP3      3676            0.0000000000
     19605      3741  TIP3      OH2           -12.2486241357      -13.2468034491      -54.2798217817  TIP3      3677            0.0000000000
     19606      3741  TIP3      H1            -11.3043531018      -13.3083984401      -54.4684774463  TIP3      3677            0.0000000000
     19607      3741  TIP3      H2            -12.4281251996      -14.0329400480      -53.7372562710  TIP3      3677            0.0000000000
     19608      3742  TIP3      OH2            -6.1401219987      -13.2339927007       72.7209211223  TIP3      3678            0.0000000000
     19609      3742  TIP3      H1             -6.4305102221      -13.4998307148       71.8359630884  TIP3      3678            0.0000000000
     19610      3742  TIP3      H2             -6.1792546207      -12.2531582933       72.6579465849  TIP3      3678            0.0000000000
     19611      3743  TIP3      OH2           -16.8961110711      -18.4578380323      -56.5868848452  TIP3      3679            0.0000000000
     19612      3743  TIP3      H1            -16.8047943569      -19.1397129374      -57.2872779559  TIP3      3679            0.0000000000
     19613      3743  TIP3      H2            -17.0011686195      -17.6655977909      -57.1511885114  TIP3      3679            0.0000000000
     19614      3744  TIP3      OH2           -16.5533453950      -19.7357423892      -58.9755101305  TIP3      3680            0.0000000000
     19615      3744  TIP3      H1            -16.0293910050      -19.5862495110      -59.7989679794  TIP3      3680            0.0000000000
     19616      3744  TIP3      H2            -17.3717973751      -20.0801349110      -59.3978939726  TIP3      3680            0.0000000000
     19617      3745  TIP3      OH2           -14.9869417440      -14.5361363611      -58.7819367331  TIP3      3681            0.0000000000
     19618      3745  TIP3      H1            -14.2425152048      -14.7375656334      -59.3576156087  TIP3      3681            0.0000000000
     19619      3745  TIP3      H2            -15.3706267393      -13.7274640316      -59.1582154419  TIP3      3681            0.0000000000
     19620      3746  TIP3      OH2           -10.6101539636      -16.8557908871      -53.8583483656  TIP3      3682            0.0000000000
     19621      3746  TIP3      H1            -10.3557539627      -17.7885489931      -53.9296733090  TIP3      3682            0.0000000000
     19622      3746  TIP3      H2             -9.7535546696      -16.3992885388      -53.7944669931  TIP3      3682            0.0000000000
     19623      3747  TIP3      OH2            -9.2229864444      -14.0050878232      -55.5987340025  TIP3      3683            0.0000000000
     19624      3747  TIP3      H1             -9.5112416542      -13.3374726365      -56.2596952915  TIP3      3683            0.0000000000
     19625      3747  TIP3      H2             -8.2762579049      -14.0565699834      -55.8221510657  TIP3      3683            0.0000000000
     19626      3748  TIP3      OH2           -18.4843452321      -17.1854393274      -54.7043133964  TIP3      3684            0.0000000000
     19627      3748  TIP3      H1            -19.2219380932      -17.8190716406      -54.8145144210  TIP3      3684            0.0000000000
     19628      3748  TIP3      H2            -17.8255303434      -17.6014304663      -55.3012848192  TIP3      3684            0.0000000000
     19629      3749  TIP3      OH2           -16.5937122839      -22.3126448426      -58.5664931815  TIP3      3685            0.0000000000
     19630      3749  TIP3      H1            -16.1177515469      -21.4661840197      -58.7577416222  TIP3      3685            0.0000000000
     19631      3749  TIP3      H2            -16.5476421656      -22.8142423757      -59.3806847082  TIP3      3685            0.0000000000
     19632      3750  TIP3      OH2           -14.4481436153      -18.3119219027      -54.9999219255  TIP3      3686            0.0000000000
     19633      3750  TIP3      H1            -14.7921783509      -18.5696583578      -54.1232760006  TIP3      3686            0.0000000000
     19634      3750  TIP3      H2            -15.2292230500      -18.4936027230      -55.5539187688  TIP3      3686            0.0000000000
     19635      3751  TIP3      OH2           -11.7657420931      -19.2098634238      -55.8969389059  TIP3      3687            0.0000000000
     19636      3751  TIP3      H1            -12.7205942546      -19.0999680402      -55.7641600331  TIP3      3687            0.0000000000
     19637      3751  TIP3      H2            -11.5139994587      -19.8076324496      -55.1676148335  TIP3      3687            0.0000000000
     19638      3752  TIP3      OH2           -10.1340979246      -20.4477074330      -54.0103958543  TIP3      3688            0.0000000000
     19639      3752  TIP3      H1            -10.2070199976      -21.4246501775      -54.0420032087  TIP3      3688            0.0000000000
     19640      3752  TIP3      H2            -10.4117928993      -20.2160029227      -53.1025831366  TIP3      3688            0.0000000000
     19641      3753  TIP3      OH2           -20.2386501861      -19.2699179056      -54.8575347469  TIP3      3689            0.0000000000
     19642      3753  TIP3      H1            -20.1146015093      -20.0153320011      -55.4743649376  TIP3      3689            0.0000000000
     19643      3753  TIP3      H2            -20.4460631878      -19.7349177152      -54.0247648947  TIP3      3689            0.0000000000
     19644      3754  TIP3      OH2           -15.2163710064       24.2075910743      -56.4220512813  TIP3      3690            0.0000000000
     19645      3754  TIP3      H1            -14.6990510667       23.4163727226      -56.2392812130  TIP3      3690            0.0000000000
     19646      3754  TIP3      H2            -15.7298812776       23.9545301305      -57.2202468274  TIP3      3690            0.0000000000
     19647      3755  TIP3      OH2           -15.1166979911      -21.5665125581      -53.8447764920  TIP3      3691            0.0000000000
     19648      3755  TIP3      H1            -15.3053005470      -22.0357240534      -54.6775160351  TIP3      3691            0.0000000000
     19649      3755  TIP3      H2            -15.7354318323      -20.8179587508      -53.8894292045  TIP3      3691            0.0000000000
     19650      3756  TIP3      OH2           -15.6938764472       -4.6410788176      -70.5832918540  TIP3      3692            0.0000000000
     19651      3756  TIP3      H1            -14.7194672966       -4.6511732575      -70.5922030084  TIP3      3692            0.0000000000
     19652      3756  TIP3      H2            -15.8857167262       -4.1752037026      -71.4134068958  TIP3      3692            0.0000000000
     19653      3757  TIP3      OH2           -22.2009955024      -10.0774924668      -71.0463634527  TIP3      3693            0.0000000000
     19654      3757  TIP3      H1            -21.2539637675       -9.9902551070      -70.8380624998  TIP3      3693            0.0000000000
     19655      3757  TIP3      H2            -22.2424396062      -10.6663958224      -71.8110455959  TIP3      3693            0.0000000000
     19656      3758  TIP3      OH2            23.5921370961       -5.0053646605      -66.4637515200  TIP3      3694            0.0000000000
     19657      3758  TIP3      H1             22.6697210206       -5.1916643937      -66.6576610540  TIP3      3694            0.0000000000
     19658      3758  TIP3      H2             23.7129877981       -5.4135632066      -65.5734097443  TIP3      3694            0.0000000000
     19659      3759  TIP3      OH2           -22.5220831710       -6.6104715856      -64.3725161251  TIP3      3695            0.0000000000
     19660      3759  TIP3      H1            -22.8157027378       -7.4979806707      -64.1366362689  TIP3      3695            0.0000000000
     19661      3759  TIP3      H2            -22.2526607199       -6.2373489516      -63.5069025397  TIP3      3695            0.0000000000
     19662      3760  TIP3      OH2            -4.9946216964       -5.8124443072      -61.4254337018  TIP3      3696            0.0000000000
     19663      3760  TIP3      H1             -4.9417893211       -5.6867117610      -60.4624478454  TIP3      3696            0.0000000000
     19664      3760  TIP3      H2             -4.2768226957       -5.2442215384      -61.7228580932  TIP3      3696            0.0000000000
     19665      3761  TIP3      OH2            -5.4246366822       -6.2419420446      -58.4584402580  TIP3      3697            0.0000000000
     19666      3761  TIP3      H1             -5.8960924081       -6.9994835688      -58.8597083560  TIP3      3697            0.0000000000
     19667      3761  TIP3      H2             -4.9671969822       -6.7057442261      -57.7337713868  TIP3      3697            0.0000000000
     19668      3762  TIP3      OH2            -6.9831206394      -10.5262510648      -53.7751067950  TIP3      3698            0.0000000000
     19669      3762  TIP3      H1             -7.8958817869      -10.5307325647      -53.4292456824  TIP3      3698            0.0000000000
     19670      3762  TIP3      H2             -6.6194716017       -9.7060194697      -53.3938171106  TIP3      3698            0.0000000000
     19671      3763  TIP3      OH2            -5.6314571257      -12.1746153596      -68.4217290836  TIP3      3699            0.0000000000
     19672      3763  TIP3      H1             -4.7856313940      -11.7579037158      -68.1868576284  TIP3      3699            0.0000000000
     19673      3763  TIP3      H2             -5.7028582848      -12.8466771756      -67.7118565759  TIP3      3699            0.0000000000
     19674      3764  TIP3      OH2            -5.3283501582      -14.0697105402      -66.4582387050  TIP3      3700            0.0000000000
     19675      3764  TIP3      H1             -6.0855481221      -14.5871411828      -66.1020675313  TIP3      3700            0.0000000000
     19676      3764  TIP3      H2             -4.7277423421      -13.9911461733      -65.6896179034  TIP3      3700            0.0000000000
     19677      3765  TIP3      OH2            -5.5537002558      -11.4222068258      -61.4830409803  TIP3      3701            0.0000000000
     19678      3765  TIP3      H1             -4.7610510738      -11.8213741794      -61.8857063213  TIP3      3701            0.0000000000
     19679      3765  TIP3      H2             -5.3999147692      -10.4715003554      -61.6574968024  TIP3      3701            0.0000000000
     19680      3766  TIP3      OH2            -6.9917229947       -8.5058098924      -59.2273156817  TIP3      3702            0.0000000000
     19681      3766  TIP3      H1             -7.6833913487       -8.1541943779      -58.6458116463  TIP3      3702            0.0000000000
     19682      3766  TIP3      H2             -7.5341955234       -8.8935510872      -59.9486677891  TIP3      3702            0.0000000000
     19683      3767  TIP3      OH2            -4.9691220052      -14.2551856298      -70.0637486448  TIP3      3703            0.0000000000
     19684      3767  TIP3      H1             -5.5798086368      -13.9687387389      -70.7796122387  TIP3      3703            0.0000000000
     19685      3767  TIP3      H2             -5.1079344010      -13.5262168156      -69.4285936127  TIP3      3703            0.0000000000
     19686      3768  TIP3      OH2            -6.5792476710      -17.0935323257      -71.4888723737  TIP3      3704            0.0000000000
     19687      3768  TIP3      H1             -6.5758703194      -16.3861978382      -72.1472745534  TIP3      3704            0.0000000000
     19688      3768  TIP3      H2             -6.9522517881      -17.8290835445      -72.0184898747  TIP3      3704            0.0000000000
     19689      3769  TIP3      OH2            -7.4813938178      -15.6293364950      -65.8816118975  TIP3      3705            0.0000000000
     19690      3769  TIP3      H1             -7.6304888189      -16.5818019696      -65.9614122406  TIP3      3705            0.0000000000
     19691      3769  TIP3      H2             -7.7878441067      -15.4539656193      -64.9689388886  TIP3      3705            0.0000000000
     19692      3770  TIP3      OH2           -22.5099562534      -13.5361501492      -61.7953430140  TIP3      3706            0.0000000000
     19693      3770  TIP3      H1            -22.3791476184      -13.6186640622      -62.7670910825  TIP3      3706            0.0000000000
     19694      3770  TIP3      H2            -21.5875456430      -13.6912133444      -61.5074223926  TIP3      3706            0.0000000000
     19695      3771  TIP3      OH2            -6.6020321103      -13.6693118998      -56.1912700306  TIP3      3707            0.0000000000
     19696      3771  TIP3      H1             -5.9968673668      -14.4346080935      -56.0807992110  TIP3      3707            0.0000000000
     19697      3771  TIP3      H2             -5.9968015900      -12.8999530617      -56.2033344488  TIP3      3707            0.0000000000
     19698      3772  TIP3      OH2            -5.1113134316      -15.8172681220      -55.5577820228  TIP3      3708            0.0000000000
     19699      3772  TIP3      H1             -6.0052019600      -16.1983428319      -55.6968608701  TIP3      3708            0.0000000000
     19700      3772  TIP3      H2             -4.5491583813      -16.6151347219      -55.6196938207  TIP3      3708            0.0000000000
     19701      3773  TIP3      OH2            -7.4584369947      -19.6250710338      -72.3070048335  TIP3      3709            0.0000000000
     19702      3773  TIP3      H1             -6.8329840242      -20.0769152176      -71.7186807258  TIP3      3709            0.0000000000
     19703      3773  TIP3      H2             -8.3136373091      -20.0603655230      -72.1931544673  TIP3      3709            0.0000000000
     19704      3774  TIP3      OH2            -7.8443038227      -18.0391912979      -67.4819658022  TIP3      3710            0.0000000000
     19705      3774  TIP3      H1             -7.5521296875      -18.9603729525      -67.3071287896  TIP3      3710            0.0000000000
     19706      3774  TIP3      H2             -7.0131784130      -17.6472192635      -67.7740830602  TIP3      3710            0.0000000000
     19707      3775  TIP3      OH2            -7.1839115792      -17.4878241336      -62.0039976283  TIP3      3711            0.0000000000
     19708      3775  TIP3      H1             -6.2154960602      -17.3015281020      -62.0135901576  TIP3      3711            0.0000000000
     19709      3775  TIP3      H2             -7.3588190989      -17.3848658343      -61.0558670432  TIP3      3711            0.0000000000
     19710      3776  TIP3      OH2            -7.1224577854      -16.7782263057      -59.2255251148  TIP3      3712            0.0000000000
     19711      3776  TIP3      H1             -8.0070829363      -16.4961886438      -58.9138581381  TIP3      3712            0.0000000000
     19712      3776  TIP3      H2             -6.6808406386      -15.9237121335      -59.4455693609  TIP3      3712            0.0000000000
     19713      3777  TIP3      OH2           -22.3917972974      -18.5232764200      -56.3630971708  TIP3      3713            0.0000000000
     19714      3777  TIP3      H1            -21.6847507363      -18.4320405673      -55.6918894454  TIP3      3713            0.0000000000
     19715      3777  TIP3      H2            -23.0535395933      -18.9066179483      -55.7730638067  TIP3      3713            0.0000000000
     19716      3778  TIP3      OH2            -4.7599741248      -22.6761558983      -53.7759884525  TIP3      3714            0.0000000000
     19717      3778  TIP3      H1             -4.6119987194      -23.4029212436      -54.4221193724  TIP3      3714            0.0000000000
     19718      3778  TIP3      H2             -4.7965721243      -21.9271220224      -54.4023131119  TIP3      3714            0.0000000000
     19719      3779  TIP3      OH2            -7.1179808335      -20.7818625973      -67.4289121034  TIP3      3715            0.0000000000
     19720      3779  TIP3      H1             -6.9016396858      -21.1683428369      -66.5495251074  TIP3      3715            0.0000000000
     19721      3779  TIP3      H2             -7.7754688607      -21.4198696840      -67.7727499371  TIP3      3715            0.0000000000
     19722      3780  TIP3      OH2           -21.7991847835      -19.8854129278      -62.5965445636  TIP3      3716            0.0000000000
     19723      3780  TIP3      H1            -21.3093492493      -20.7432055292      -62.5709232360  TIP3      3716            0.0000000000
     19724      3780  TIP3      H2            -21.0761033793      -19.2608792566      -62.4405168833  TIP3      3716            0.0000000000
     19725      3781  TIP3      OH2           -23.3985151288      -16.6785864575      -62.0541608187  TIP3      3717            0.0000000000
     19726      3781  TIP3      H1            -22.7449846590      -17.1961036178      -62.5517251382  TIP3      3717            0.0000000000
     19727      3781  TIP3      H2            -22.8123352903      -16.0628273387      -61.6082058169  TIP3      3717            0.0000000000
     19728      3782  TIP3      OH2            -5.3152752478      -20.6688113167      -55.5665723697  TIP3      3718            0.0000000000
     19729      3782  TIP3      H1             -6.2494994757      -20.3902806556      -55.5936369984  TIP3      3718            0.0000000000
     19730      3782  TIP3      H2             -5.3446708731      -21.2530676792      -56.3410442198  TIP3      3718            0.0000000000
     19731      3783  TIP3      OH2            -5.2997543492      -20.7448272652      -70.8483251383  TIP3      3719            0.0000000000
     19732      3783  TIP3      H1             -4.8897723532      -21.3862216420      -71.4463944862  TIP3      3719            0.0000000000
     19733      3783  TIP3      H2             -4.6076156172      -20.0650232994      -70.7501048720  TIP3      3719            0.0000000000
     19734      3784  TIP3      OH2           -22.7520686143      -20.8732887903      -67.4081452269  TIP3      3720            0.0000000000
     19735      3784  TIP3      H1            -23.6617517935      -20.5736227155      -67.3938248092  TIP3      3720            0.0000000000
     19736      3784  TIP3      H2            -22.3328848281      -20.3552678850      -68.1348551438  TIP3      3720            0.0000000000
     19737      3785  TIP3      OH2            -8.2735682726       -5.7464078579      -65.7660569343  TIP3      3721            0.0000000000
     19738      3785  TIP3      H1             -7.5851556319       -6.0385331292      -66.3938940016  TIP3      3721            0.0000000000
     19739      3785  TIP3      H2             -7.7693443400       -5.2436089667      -65.1118408439  TIP3      3721            0.0000000000
     19740      3786  TIP3      OH2            23.8306538099      -21.7460297371      -59.4154375652  TIP3      3722            0.0000000000
     19741      3786  TIP3      H1             23.2742377937      -21.9324671581      -58.6530187951  TIP3      3722            0.0000000000
     19742      3786  TIP3      H2             23.3238574663      -21.2363039798      -60.0620566162  TIP3      3722            0.0000000000
     19743      3787  TIP3      OH2           -20.8342436380       -8.8676095392      -55.2146901286  TIP3      3723            0.0000000000
     19744      3787  TIP3      H1            -21.6670404511       -8.7078228633      -55.6661179182  TIP3      3723            0.0000000000
     19745      3787  TIP3      H2            -21.0909436218       -8.9905916194      -54.2944081621  TIP3      3723            0.0000000000
     19746      3788  TIP3      OH2           -17.9593742646       -7.8239861478      -59.0122149715  TIP3      3724            0.0000000000
     19747      3788  TIP3      H1            -18.2452358249       -6.9246815994      -59.2437343655  TIP3      3724            0.0000000000
     19748      3788  TIP3      H2            -17.0180933208       -7.7606763484      -59.2902499223  TIP3      3724            0.0000000000
     19749      3789  TIP3      OH2           -13.6065437667       -6.4092583155      -56.1129593003  TIP3      3725            0.0000000000
     19750      3789  TIP3      H1            -13.4848569964       -6.7582053011      -55.2026604996  TIP3      3725            0.0000000000
     19751      3789  TIP3      H2            -12.7027791416       -6.0775475291      -56.3305444631  TIP3      3725            0.0000000000
     19752      3790  TIP3      OH2           -11.3258333078       -5.1359878835      -56.7760152689  TIP3      3726            0.0000000000
     19753      3790  TIP3      H1            -10.5761069169       -5.6930010888      -57.0182100517  TIP3      3726            0.0000000000
     19754      3790  TIP3      H2            -10.9630718621       -4.6786394132      -55.9868981999  TIP3      3726            0.0000000000
     19755      3791  TIP3      OH2            -6.3694222953      -22.5380066697      -57.6421750890  TIP3      3727            0.0000000000
     19756      3791  TIP3      H1             -7.1589810560      -22.1664408540      -58.0637508871  TIP3      3727            0.0000000000
     19757      3791  TIP3      H2             -6.1861765936      -23.3487184465      -58.1417235872  TIP3      3727            0.0000000000
     19758      3792  TIP3      OH2           -20.6090765968       -4.6843164058      -59.0287638418  TIP3      3728            0.0000000000
     19759      3792  TIP3      H1            -21.2737206531       -4.0701581910      -59.4202824910  TIP3      3728            0.0000000000
     19760      3792  TIP3      H2            -20.8632087787       -4.6874230696      -58.0969267708  TIP3      3728            0.0000000000
     19761      3793  TIP3      OH2           -18.0336622224       -4.9900509335      -59.9105728548  TIP3      3729            0.0000000000
     19762      3793  TIP3      H1            -18.9337334046       -4.8361800639      -59.5487074333  TIP3      3729            0.0000000000
     19763      3793  TIP3      H2            -18.0696954068       -4.4334751365      -60.7079471376  TIP3      3729            0.0000000000
     19764      3794  TIP3      OH2           -13.3303880710       -5.1266999680      -60.7630749692  TIP3      3730            0.0000000000
     19765      3794  TIP3      H1            -13.7853316846       -4.5584155674      -61.4052591112  TIP3      3730            0.0000000000
     19766      3794  TIP3      H2            -13.2116951900       -4.5091697021      -60.0076967685  TIP3      3730            0.0000000000
     19767      3795  TIP3      OH2           -11.0831709526       -6.3742532003      -59.6709216422  TIP3      3731            0.0000000000
     19768      3795  TIP3      H1            -11.8853745483       -6.0324328878      -60.1066944686  TIP3      3731            0.0000000000
     19769      3795  TIP3      H2            -10.5252004471       -5.5873925565      -59.7779305522  TIP3      3731            0.0000000000
     19770      3796  TIP3      OH2            -8.5196103708       -4.7670882759      -59.5569493657  TIP3      3732            0.0000000000
     19771      3796  TIP3      H1             -8.4598288729       -3.8127580302      -59.7728353806  TIP3      3732            0.0000000000
     19772      3796  TIP3      H2             -8.2379279357       -5.1760014854      -60.4030919762  TIP3      3732            0.0000000000
     19773      3797  TIP3      OH2           -21.0327329428       -5.9756235583      -62.1184650018  TIP3      3733            0.0000000000
     19774      3797  TIP3      H1            -21.0707985989       -6.3913128273      -61.2385377088  TIP3      3733            0.0000000000
     19775      3797  TIP3      H2            -20.2076021573       -6.3387070162      -62.4884611460  TIP3      3733            0.0000000000
     19776      3798  TIP3      OH2           -18.9788142654       -7.2587811568      -63.4169102766  TIP3      3734            0.0000000000
     19777      3798  TIP3      H1            -19.1107140100       -8.1910779457      -63.1579644238  TIP3      3734            0.0000000000
     19778      3798  TIP3      H2            -18.1297831809       -7.0606079036      -62.9717354023  TIP3      3734            0.0000000000
     19779      3799  TIP3      OH2           -16.3431127722       -6.7598139770      -62.5156628306  TIP3      3735            0.0000000000
     19780      3799  TIP3      H1            -16.2048273280       -7.6900949092      -62.7725309446  TIP3      3735            0.0000000000
     19781      3799  TIP3      H2            -16.3032335276       -6.8130102135      -61.5488420142  TIP3      3735            0.0000000000
     19782      3800  TIP3      OH2           -12.9008062765      -20.9881760465      -63.3730248534  TIP3      3736            0.0000000000
     19783      3800  TIP3      H1            -13.5707210873      -21.6493004734      -63.0731333199  TIP3      3736            0.0000000000
     19784      3800  TIP3      H2            -12.3272538886      -21.5608124564      -63.8910513542  TIP3      3736            0.0000000000
     19785      3801  TIP3      OH2            -7.6290784300      -22.4803183469      -63.1347009578  TIP3      3737            0.0000000000
     19786      3801  TIP3      H1             -7.0988543759      -22.3659363395      -63.9489514116  TIP3      3737            0.0000000000
     19787      3801  TIP3      H2             -8.5130087874      -22.7455593196      -63.4513812307  TIP3      3737            0.0000000000
     19788      3802  TIP3      OH2            -6.0784840982      -21.7696173593      -65.1662237626  TIP3      3738            0.0000000000
     19789      3802  TIP3      H1             -5.4293166024      -22.4074989275      -65.4793463805  TIP3      3738            0.0000000000
     19790      3802  TIP3      H2             -5.5400160223      -20.9639216266      -64.9823192882  TIP3      3738            0.0000000000
     19791      3803  TIP3      OH2           -20.4634525250      -22.6051743517      -65.5610300555  TIP3      3739            0.0000000000
     19792      3803  TIP3      H1            -21.2503050487      -22.6110308553      -66.1245721571  TIP3      3739            0.0000000000
     19793      3803  TIP3      H2            -20.0861885461      -23.4762502445      -65.6784922958  TIP3      3739            0.0000000000
     19794      3804  TIP3      OH2           -21.6867422364      -22.3619650438      -69.3021662062  TIP3      3740            0.0000000000
     19795      3804  TIP3      H1            -21.3226264767      -21.8893849817      -70.0639890588  TIP3      3740            0.0000000000
     19796      3804  TIP3      H2            -22.5580272814      -21.9788085857      -69.2196873940  TIP3      3740            0.0000000000
     19797      3805  TIP3      OH2           -16.0454243963      -22.4228553701      -65.8676821486  TIP3      3741            0.0000000000
     19798      3805  TIP3      H1            -15.1241157430      -22.1316911788      -65.8144672309  TIP3      3741            0.0000000000
     19799      3805  TIP3      H2            -16.1219724476      -22.9065216150      -65.0276666901  TIP3      3741            0.0000000000
     19800      3806  TIP3      OH2           -10.4849037295      -22.5158616232      -64.1864093305  TIP3      3742            0.0000000000
     19801      3806  TIP3      H1            -10.3313310101      -22.4249388355      -65.1265242348  TIP3      3742            0.0000000000
     19802      3806  TIP3      H2            -10.6289843750      -23.4610920905      -64.0590716989  TIP3      3742            0.0000000000
     19803      3807  TIP3      OH2            -9.0011199537      -22.3849497448      -68.4292896494  TIP3      3743            0.0000000000
     19804      3807  TIP3      H1             -9.7916148129      -21.8151342824      -68.5413228229  TIP3      3743            0.0000000000
     19805      3807  TIP3      H2             -9.3012377983      -23.1262002734      -67.8976030752  TIP3      3743            0.0000000000
     19806      3808  TIP3      OH2           -21.8041870133       -6.7529584162      -68.7957048440  TIP3      3744            0.0000000000
     19807      3808  TIP3      H1            -22.4991186112       -6.7892043928      -69.4691181190  TIP3      3744            0.0000000000
     19808      3808  TIP3      H2            -21.8036325760       -5.8016477237      -68.6273362343  TIP3      3744            0.0000000000
     19809      3809  TIP3      OH2           -19.8874272261      -20.8970219218      -71.2609407643  TIP3      3745            0.0000000000
     19810      3809  TIP3      H1            -19.2970879577      -21.3747178576      -71.8494265241  TIP3      3745            0.0000000000
     19811      3809  TIP3      H2            -19.2391315272      -20.5229281147      -70.6220693848  TIP3      3745            0.0000000000
     19812      3810  TIP3      OH2           -15.0058781165      -20.5592601025      -68.8698555977  TIP3      3746            0.0000000000
     19813      3810  TIP3      H1            -14.6278192391      -21.0989502593      -68.1512670463  TIP3      3746            0.0000000000
     19814      3810  TIP3      H2            -14.8744365586      -19.6747689764      -68.4653810105  TIP3      3746            0.0000000000
     19815      3811  TIP3      OH2           -13.0209294974       -5.4135088690      -70.5666118815  TIP3      3747            0.0000000000
     19816      3811  TIP3      H1            -12.0454242808       -5.2983989211      -70.6095390862  TIP3      3747            0.0000000000
     19817      3811  TIP3      H2            -13.1367461831       -6.0253330967      -71.3190179911  TIP3      3747            0.0000000000
     19818      3812  TIP3      OH2            -6.3095941405       -5.9702269246      -67.7392814336  TIP3      3748            0.0000000000
     19819      3812  TIP3      H1             -6.4978150940       -6.7641780900      -68.2952643383  TIP3      3748            0.0000000000
     19820      3812  TIP3      H2             -6.3950811165       -5.2474922910      -68.3908243388  TIP3      3748            0.0000000000
     19821      3813  TIP3      OH2           -20.5900340478      -21.8389187405      -56.1619392913  TIP3      3749            0.0000000000
     19822      3813  TIP3      H1            -21.0435437805      -22.6390940866      -55.8086563127  TIP3      3749            0.0000000000
     19823      3813  TIP3      H2            -19.7256266865      -21.9321718956      -55.7094021563  TIP3      3749            0.0000000000
     19824      3814  TIP3      OH2           -18.6009852152      -22.5769345725      -54.4506428008  TIP3      3750            0.0000000000
     19825      3814  TIP3      H1            -17.7057872540      -22.9169443974      -54.6016243760  TIP3      3750            0.0000000000
     19826      3814  TIP3      H2            -19.0426045487      -23.3560394276      -54.0866796475  TIP3      3750            0.0000000000
     19827      3815  TIP3      OH2           -20.1283299627       -5.9271332299      -71.7241863302  TIP3      3751            0.0000000000
     19828      3815  TIP3      H1            -20.3219582113       -5.5234105731      -70.8655565263  TIP3      3751            0.0000000000
     19829      3815  TIP3      H2            -19.2807732649       -6.3670911456      -71.5924571087  TIP3      3751            0.0000000000
     19830      3816  TIP3      OH2           -10.1559209810       23.5970862988      -54.3317774304  TIP3      3752            0.0000000000
     19831      3816  TIP3      H1            -10.2770899635       22.9557006260      -53.6178750524  TIP3      3752            0.0000000000
     19832      3816  TIP3      H2             -9.2618718619       23.4535620522      -54.6657818957  TIP3      3752            0.0000000000
     19833      3817  TIP3      OH2            -7.0427403412       -7.2095550615      -55.6835632402  TIP3      3753            0.0000000000
     19834      3817  TIP3      H1             -7.8388330815       -7.3340068495      -56.2446133614  TIP3      3753            0.0000000000
     19835      3817  TIP3      H2             -7.1641215766       -6.2652922160      -55.4595686238  TIP3      3753            0.0000000000
     19836      3818  TIP3      OH2             7.4257734916      -13.3258747224      -65.7180371647  TIP3      3754            0.0000000000
     19837      3818  TIP3      H1              7.3767490625      -12.3445149504      -65.7186930399  TIP3      3754            0.0000000000
     19838      3818  TIP3      H2              6.6733053988      -13.5590616543      -66.2819100972  TIP3      3754            0.0000000000
     19839      3819  TIP3      OH2             6.2725199792      -14.1054881141      -62.2059825663  TIP3      3755            0.0000000000
     19840      3819  TIP3      H1              6.2552834393      -14.7304262609      -61.4628964538  TIP3      3755            0.0000000000
     19841      3819  TIP3      H2              5.8562813307      -14.6195736697      -62.9161386780  TIP3      3755            0.0000000000
     19842      3820  TIP3      OH2            -1.3949414927      -14.3935696651      -60.6453805949  TIP3      3756            0.0000000000
     19843      3820  TIP3      H1             -1.3157566800      -15.0966793077      -59.9676302078  TIP3      3756            0.0000000000
     19844      3820  TIP3      H2             -0.6397274674      -13.8360123327      -60.4063828304  TIP3      3756            0.0000000000
     19845      3821  TIP3      OH2             9.9100632414      -11.1410961205      -63.8863404272  TIP3      3757            0.0000000000
     19846      3821  TIP3      H1              9.5254851818      -11.8652401081      -63.3847239777  TIP3      3757            0.0000000000
     19847      3821  TIP3      H2              9.9699203562      -10.4409090311      -63.2109253037  TIP3      3757            0.0000000000
     19848      3822  TIP3      OH2            -0.4941016435       -9.9743875468      -62.1252932464  TIP3      3758            0.0000000000
     19849      3822  TIP3      H1             -0.7543645711      -10.8461009217      -62.4762104725  TIP3      3758            0.0000000000
     19850      3822  TIP3      H2              0.4750022680      -10.0985851033      -62.1194390251  TIP3      3758            0.0000000000
     19851      3823  TIP3      OH2            -3.8388236071      -16.4126349843      -66.6376250086  TIP3      3759            0.0000000000
     19852      3823  TIP3      H1             -4.2736634964      -15.5445607703      -66.7148511198  TIP3      3759            0.0000000000
     19853      3823  TIP3      H2             -4.3888373364      -16.9692635245      -67.2058931745  TIP3      3759            0.0000000000
     19854      3824  TIP3      OH2            -3.1030877748      -14.1629152950      -64.4614560180  TIP3      3760            0.0000000000
     19855      3824  TIP3      H1             -2.8165665427      -15.0078431835      -64.0578794978  TIP3      3760            0.0000000000
     19856      3824  TIP3      H2             -2.4550886258      -14.0503171583      -65.1697170717  TIP3      3760            0.0000000000
     19857      3825  TIP3      OH2             7.1006483783       -5.9215335005      -63.6407149569  TIP3      3761            0.0000000000
     19858      3825  TIP3      H1              7.6958005440       -6.6354545187      -63.9760303432  TIP3      3761            0.0000000000
     19859      3825  TIP3      H2              6.7643037809       -6.3434225280      -62.8462150392  TIP3      3761            0.0000000000
     19860      3826  TIP3      OH2             4.6421451766      -11.6891463219      -61.6965583837  TIP3      3762            0.0000000000
     19861      3826  TIP3      H1              4.9605570869      -12.3256533403      -62.3574357160  TIP3      3762            0.0000000000
     19862      3826  TIP3      H2              5.4674549585      -11.5394468541      -61.1979202210  TIP3      3762            0.0000000000
     19863      3827  TIP3      OH2            13.2652399831      -20.1098837177      -60.9853978565  TIP3      3763            0.0000000000
     19864      3827  TIP3      H1             13.4088100057      -19.4860100742      -60.2356762140  TIP3      3763            0.0000000000
     19865      3827  TIP3      H2             13.7825475474      -19.6552313356      -61.6675792819  TIP3      3763            0.0000000000
     19866      3828  TIP3      OH2             7.8047978230      -17.2443255756      -61.3646570420  TIP3      3764            0.0000000000
     19867      3828  TIP3      H1              7.9748440533      -18.2062994196      -61.3575649446  TIP3      3764            0.0000000000
     19868      3828  TIP3      H2              7.6997091371      -17.0997550107      -62.3256603001  TIP3      3764            0.0000000000
     19869      3829  TIP3      OH2             0.8645649155      -19.0839884451      -64.1961736659  TIP3      3765            0.0000000000
     19870      3829  TIP3      H1              1.0353979467      -18.2814048751      -64.7262233638  TIP3      3765            0.0000000000
     19871      3829  TIP3      H2              0.5503867114      -19.7185613473      -64.8752116131  TIP3      3765            0.0000000000
     19872      3830  TIP3      OH2             8.6914798539      -19.1472336738      -65.8502740830  TIP3      3766            0.0000000000
     19873      3830  TIP3      H1              9.2966988919      -19.4083600608      -65.1189641271  TIP3      3766            0.0000000000
     19874      3830  TIP3      H2              9.2298190437      -18.4795048877      -66.3034389369  TIP3      3766            0.0000000000
     19875      3831  TIP3      OH2            -2.4789021107      -16.7121626815      -63.4334403812  TIP3      3767            0.0000000000
     19876      3831  TIP3      H1             -1.8000171437      -17.2447468833      -62.9856168285  TIP3      3767            0.0000000000
     19877      3831  TIP3      H2             -2.3606706332      -17.0051818942      -64.3541952170  TIP3      3767            0.0000000000
     19878      3832  TIP3      OH2             2.6725693084      -15.1580070465      -64.0902860657  TIP3      3768            0.0000000000
     19879      3832  TIP3      H1              3.3681326344      -15.7435304608      -63.7481623722  TIP3      3768            0.0000000000
     19880      3832  TIP3      H2              2.1860864850      -15.7915272887      -64.6549641060  TIP3      3768            0.0000000000
     19881      3833  TIP3      OH2            13.6958794044      -18.5927895436      -58.7315813792  TIP3      3769            0.0000000000
     19882      3833  TIP3      H1             13.0724885617      -17.8427803140      -58.8361006467  TIP3      3769            0.0000000000
     19883      3833  TIP3      H2             13.6858439877      -18.7139492912      -57.7735489102  TIP3      3769            0.0000000000
     19884      3834  TIP3      OH2            -0.2117724129      -20.2159494638      -60.1813419530  TIP3      3770            0.0000000000
     19885      3834  TIP3      H1             -0.4861829969      -19.6053852785      -60.9059736693  TIP3      3770            0.0000000000
     19886      3834  TIP3      H2             -0.8606849097      -19.9828576347      -59.4674304513  TIP3      3770            0.0000000000
     19887      3835  TIP3      OH2             7.0984799235      -10.7749808596      -66.6057184411  TIP3      3771            0.0000000000
     19888      3835  TIP3      H1              6.8514826607      -11.0236626784      -67.5133881535  TIP3      3771            0.0000000000
     19889      3835  TIP3      H2              6.7960254220       -9.8420647350      -66.5476527981  TIP3      3771            0.0000000000
     19890      3836  TIP3      OH2             2.3237122803      -12.5731144958      -59.9470401636  TIP3      3772            0.0000000000
     19891      3836  TIP3      H1              1.6372001828      -11.9299707168      -59.6753848443  TIP3      3772            0.0000000000
     19892      3836  TIP3      H2              3.0367766115      -11.9822117229      -60.2356809508  TIP3      3772            0.0000000000
     19893      3837  TIP3      OH2            10.4340933655      -19.6284890578      -63.7738724886  TIP3      3773            0.0000000000
     19894      3837  TIP3      H1             10.2595413991      -20.4618037752      -63.3102472147  TIP3      3773            0.0000000000
     19895      3837  TIP3      H2             11.1583501568      -19.2778259937      -63.2364361679  TIP3      3773            0.0000000000
     19896      3838  TIP3      OH2            -0.5888590010      -18.3303974210      -62.1087119139  TIP3      3774            0.0000000000
     19897      3838  TIP3      H1              0.0533914301      -17.6494363596      -61.8097518318  TIP3      3774            0.0000000000
     19898      3838  TIP3      H2             -0.0912070318      -18.7745755216      -62.8442969969  TIP3      3774            0.0000000000
     19899      3839  TIP3      OH2             0.7967968874      -10.5599093413      -59.1025212732  TIP3      3775            0.0000000000
     19900      3839  TIP3      H1              0.7331122781       -9.6458062962      -59.4328547865  TIP3      3775            0.0000000000
     19901      3839  TIP3      H2             -0.0900682626      -10.6524977242      -58.6727600492  TIP3      3775            0.0000000000
     19902      3840  TIP3      OH2            -3.1640041623      -11.0078058361      -68.2594958714  TIP3      3776            0.0000000000
     19903      3840  TIP3      H1             -3.3873334251      -10.6561100049      -69.1426383577  TIP3      3776            0.0000000000
     19904      3840  TIP3      H2             -3.0527876651      -10.1830521287      -67.7461717495  TIP3      3776            0.0000000000
     19905      3841  TIP3      OH2            10.4607063200       -9.2812732972      -61.5452202101  TIP3      3777            0.0000000000
     19906      3841  TIP3      H1              9.4922524959       -9.1662638044      -61.4222387508  TIP3      3777            0.0000000000
     19907      3841  TIP3      H2             10.7257545363       -8.3705227924      -61.7670293599  TIP3      3777            0.0000000000
     19908      3842  TIP3      OH2            10.8584385480      -21.0260638112      -60.0249508052  TIP3      3778            0.0000000000
     19909      3842  TIP3      H1             10.0824006442      -20.4976297913      -60.2624479922  TIP3      3778            0.0000000000
     19910      3842  TIP3      H2             11.5038961205      -20.6501923222      -60.6533374411  TIP3      3778            0.0000000000
     19911      3843  TIP3      OH2             3.9420547993      -22.6497468656      -62.5870338405  TIP3      3779            0.0000000000
     19912      3843  TIP3      H1              3.8011243532      -23.6109515611      -62.6781725213  TIP3      3779            0.0000000000
     19913      3843  TIP3      H2              3.0376020874      -22.3422153759      -62.4413847322  TIP3      3779            0.0000000000
     19914      3844  TIP3      OH2             8.7681551838       -7.5267805458      -64.9395805855  TIP3      3780            0.0000000000
     19915      3844  TIP3      H1              9.1432315089       -8.2525165681      -65.4794727289  TIP3      3780            0.0000000000
     19916      3844  TIP3      H2              9.2169324949       -6.7554093706      -65.3419895242  TIP3      3780            0.0000000000
     19917      3845  TIP3      OH2             9.9518631834       -9.5897483676      -66.4417459376  TIP3      3781            0.0000000000
     19918      3845  TIP3      H1              9.6541416239      -10.2655189784      -67.0753759499  TIP3      3781            0.0000000000
     19919      3845  TIP3      H2              9.9734988508      -10.0963411419      -65.6092942179  TIP3      3781            0.0000000000
     19920      3846  TIP3      OH2            11.5311229885      -10.9718311411      -57.9391396221  TIP3      3782            0.0000000000
     19921      3846  TIP3      H1             11.6999800331      -11.6506649353      -58.6298339002  TIP3      3782            0.0000000000
     19922      3846  TIP3      H2             11.7677761311      -10.1513691600      -58.4124875193  TIP3      3782            0.0000000000
     19923      3847  TIP3      OH2             6.0454905404      -14.1277869812      -68.1986371110  TIP3      3783            0.0000000000
     19924      3847  TIP3      H1              5.3519519947      -13.5270680288      -68.5359249504  TIP3      3783            0.0000000000
     19925      3847  TIP3      H2              6.7555507481      -14.0048886439      -68.8613851648  TIP3      3783            0.0000000000
     19926      3848  TIP3      OH2             6.1780668962      -15.5375335764      -71.0812867334  TIP3      3784            0.0000000000
     19927      3848  TIP3      H1              6.8467564797      -15.5433862369      -70.3765354402  TIP3      3784            0.0000000000
     19928      3848  TIP3      H2              6.5652941876      -16.1702676484      -71.6876612496  TIP3      3784            0.0000000000
     19929      3849  TIP3      OH2            13.4487598828      -14.6609144663      -59.9249369766  TIP3      3785            0.0000000000
     19930      3849  TIP3      H1             12.8084768701      -13.9236827609      -59.8869432947  TIP3      3785            0.0000000000
     19931      3849  TIP3      H2             13.9709300626      -14.4132075972      -60.7115007799  TIP3      3785            0.0000000000
     19932      3850  TIP3      OH2             9.5150687699      -13.9325935718      -67.2505622374  TIP3      3786            0.0000000000
     19933      3850  TIP3      H1              8.7805684072      -13.6545947750      -66.6499166215  TIP3      3786            0.0000000000
     19934      3850  TIP3      H2             10.0163769874      -14.5551866992      -66.6917552026  TIP3      3786            0.0000000000
     19935      3851  TIP3      OH2             9.4426667324      -15.7339221589      -58.1072087788  TIP3      3787            0.0000000000
     19936      3851  TIP3      H1              9.4340604546      -14.8980533241      -57.6144198388  TIP3      3787            0.0000000000
     19937      3851  TIP3      H2              8.8261519132      -15.4630417433      -58.8170431029  TIP3      3787            0.0000000000
     19938      3852  TIP3      OH2             1.1163001507      -13.2274256183      -65.3472332086  TIP3      3788            0.0000000000
     19939      3852  TIP3      H1              0.8083933105      -13.6028552233      -66.2070805372  TIP3      3788            0.0000000000
     19940      3852  TIP3      H2              1.7291449387      -13.9224872936      -65.0127908067  TIP3      3788            0.0000000000
     19941      3853  TIP3      OH2             2.3890770356       -9.8922340091      -62.6251876619  TIP3      3789            0.0000000000
     19942      3853  TIP3      H1              2.4475905934      -10.3075458851      -63.5000022469  TIP3      3789            0.0000000000
     19943      3853  TIP3      H2              3.2152011855      -10.2056513328      -62.2148547931  TIP3      3789            0.0000000000
     19944      3854  TIP3      OH2             1.4337471372      -14.4828322249      -61.6607041732  TIP3      3790            0.0000000000
     19945      3854  TIP3      H1              1.9501432460      -14.3871303716      -62.4875038653  TIP3      3790            0.0000000000
     19946      3854  TIP3      H2              1.8468770996      -13.8070619290      -61.0748867627  TIP3      3790            0.0000000000
     19947      3855  TIP3      OH2             7.8717002248       -8.8982827820      -60.9592469225  TIP3      3791            0.0000000000
     19948      3855  TIP3      H1              7.6027174816       -8.2754115451      -60.2728956896  TIP3      3791            0.0000000000
     19949      3855  TIP3      H2              7.6360135157       -9.7590787726      -60.5417488833  TIP3      3791            0.0000000000
     19950      3856  TIP3      OH2             2.4076396775      -10.0445841789      -56.9807227848  TIP3      3792            0.0000000000
     19951      3856  TIP3      H1              1.9470029938       -9.3424832341      -56.4723943641  TIP3      3792            0.0000000000
     19952      3856  TIP3      H2              1.7615547434      -10.2435741848      -57.7036593827  TIP3      3792            0.0000000000
     19953      3857  TIP3      OH2             8.3741102009      -14.6785370741      -69.6060287758  TIP3      3793            0.0000000000
     19954      3857  TIP3      H1              8.9129983547      -14.4710733934      -68.8022880431  TIP3      3793            0.0000000000
     19955      3857  TIP3      H2              8.7926702604      -14.1328700749      -70.3010548715  TIP3      3793            0.0000000000
     19956      3858  TIP3      OH2            -0.6428355845      -13.9014500320      -57.8728514749  TIP3      3794            0.0000000000
     19957      3858  TIP3      H1             -0.5743126800      -13.2380104185      -57.1615687695  TIP3      3794            0.0000000000
     19958      3858  TIP3      H2             -1.6035032202      -13.8662253759      -58.0185812151  TIP3      3794            0.0000000000
     19959      3859  TIP3      OH2             6.2120032710       -7.9249842140      -66.2068249816  TIP3      3795            0.0000000000
     19960      3859  TIP3      H1              6.4881182963       -7.6656189565      -65.3165094711  TIP3      3795            0.0000000000
     19961      3859  TIP3      H2              5.4836872133       -7.2910950845      -66.3329522118  TIP3      3795            0.0000000000
     19962      3860  TIP3      OH2             0.6637752312       -8.0434419154      -56.2493870366  TIP3      3796            0.0000000000
     19963      3860  TIP3      H1              0.5767617156       -8.1185502306      -57.2193120326  TIP3      3796            0.0000000000
     19964      3860  TIP3      H2             -0.2573422125       -8.1860479577      -55.9571450851  TIP3      3796            0.0000000000
     19965      3861  TIP3      OH2            12.1187513711      -23.0127570432      -69.7474910001  TIP3      3797            0.0000000000
     19966      3861  TIP3      H1             11.2326098665      -22.8683317026      -69.3877905465  TIP3      3797            0.0000000000
     19967      3861  TIP3      H2             12.3253411951      -22.1190758434      -70.0557441083  TIP3      3797            0.0000000000
     19968      3862  TIP3      OH2             0.0684048510      -14.2377578808      -67.7516414145  TIP3      3798            0.0000000000
     19969      3862  TIP3      H1             -0.2300716258      -13.4459335746      -68.2381880484  TIP3      3798            0.0000000000
     19970      3862  TIP3      H2             -0.5925098553      -14.9033293096      -67.9610034595  TIP3      3798            0.0000000000
     19971      3863  TIP3      OH2            13.1851143971       -8.5794583329      -71.1637382856  TIP3      3799            0.0000000000
     19972      3863  TIP3      H1             13.3483911939       -7.6237181660      -71.1615721367  TIP3      3799            0.0000000000
     19973      3863  TIP3      H2             14.0748388944       -8.9237396903      -71.3647744228  TIP3      3799            0.0000000000
     19974      3864  TIP3      OH2            -3.8261893768      -11.7785511198      -58.7879645695  TIP3      3800            0.0000000000
     19975      3864  TIP3      H1             -4.2637211960      -11.8660739329      -59.6543937821  TIP3      3800            0.0000000000
     19976      3864  TIP3      H2             -3.7111098533      -12.7282287357      -58.5783537743  TIP3      3800            0.0000000000
     19977      3865  TIP3      OH2            -4.0579940614       -9.0475270893      -62.0375947786  TIP3      3801            0.0000000000
     19978      3865  TIP3      H1             -3.0961121555       -9.1496630196      -62.0592074865  TIP3      3801            0.0000000000
     19979      3865  TIP3      H2             -4.1446265541       -8.2190716856      -61.5508184162  TIP3      3801            0.0000000000
     19980      3866  TIP3      OH2            14.1731385505       -8.3396296704      -56.3330004346  TIP3      3802            0.0000000000
     19981      3866  TIP3      H1             14.0438517778       -9.2960152132      -56.3780008268  TIP3      3802            0.0000000000
     19982      3866  TIP3      H2             13.2944885127       -8.0827829141      -55.9683246858  TIP3      3802            0.0000000000
     19983      3867  TIP3      OH2             5.1601475590       -8.8534096572      -57.4091554045  TIP3      3803            0.0000000000
     19984      3867  TIP3      H1              5.1818613176       -7.9724551544      -56.9617439823  TIP3      3803            0.0000000000
     19985      3867  TIP3      H2              4.2403237930       -9.1574748168      -57.2777111249  TIP3      3803            0.0000000000
     19986      3868  TIP3      OH2             5.6279468550       -5.0783935645      -67.7636666030  TIP3      3804            0.0000000000
     19987      3868  TIP3      H1              5.4425257480       -5.0902061567      -68.7117590439  TIP3      3804            0.0000000000
     19988      3868  TIP3      H2              5.5838704024       -4.1310823681      -67.5210808984  TIP3      3804            0.0000000000
     19989      3869  TIP3      OH2            -0.8446106870       -6.1583793340      -65.7838978129  TIP3      3805            0.0000000000
     19990      3869  TIP3      H1             -0.5977496430       -6.6004687895      -64.9437420202  TIP3      3805            0.0000000000
     19991      3869  TIP3      H2             -1.6411607012       -6.6355943399      -66.0473967595  TIP3      3805            0.0000000000
     19992      3870  TIP3      OH2             8.5295869284       -5.8563784010      -70.7096007197  TIP3      3806            0.0000000000
     19993      3870  TIP3      H1              9.0799850791       -6.5232636013      -71.1932881434  TIP3      3806            0.0000000000
     19994      3870  TIP3      H2              8.7265511668       -6.1074755421      -69.7934518087  TIP3      3806            0.0000000000
     19995      3871  TIP3      OH2             8.3236411195       -5.8917864178      -67.9115357530  TIP3      3807            0.0000000000
     19996      3871  TIP3      H1              7.3623040862       -5.8328181449      -67.7238371326  TIP3      3807            0.0000000000
     19997      3871  TIP3      H2              8.5522878675       -6.6656908158      -67.3784126244  TIP3      3807            0.0000000000
     19998      3872  TIP3      OH2            11.3161607964      -16.8903228426      -55.8875143636  TIP3      3808            0.0000000000
     19999      3872  TIP3      H1             10.8261319565      -16.4376671561      -56.5955676377  TIP3      3808            0.0000000000
     20000      3872  TIP3      H2             11.2915395627      -17.8117754826      -56.1875154749  TIP3      3808            0.0000000000
     20001      3873  TIP3      OH2            -1.5188677189      -10.4765018997      -57.8743881602  TIP3      3809            0.0000000000
     20002      3873  TIP3      H1             -1.3143568668      -10.8232518135      -56.9797890289  TIP3      3809            0.0000000000
     20003      3873  TIP3      H2             -2.3960038830      -10.8597757897      -58.0839754459  TIP3      3809            0.0000000000
     20004      3874  TIP3      OH2             1.1634182943      -21.4207621812      -62.0805476736  TIP3      3810            0.0000000000
     20005      3874  TIP3      H1              0.3176558448      -21.8508844974      -62.3612399500  TIP3      3810            0.0000000000
     20006      3874  TIP3      H2              0.8426672102      -20.9574932835      -61.2865682885  TIP3      3810            0.0000000000
     20007      3875  TIP3      OH2             5.8071822179      -22.0567967051      -58.3427263686  TIP3      3811            0.0000000000
     20008      3875  TIP3      H1              6.2716609333      -22.7213193760      -57.8274523959  TIP3      3811            0.0000000000
     20009      3875  TIP3      H2              4.9271392364      -22.4306013510      -58.3720743050  TIP3      3811            0.0000000000
     20010      3876  TIP3      OH2             9.0543810749      -18.5158855052      -57.6701606971  TIP3      3812            0.0000000000
     20011      3876  TIP3      H1              8.4838874264      -18.6957165374      -56.8892178221  TIP3      3812            0.0000000000
     20012      3876  TIP3      H2              8.9011750118      -17.5785719379      -57.8938876242  TIP3      3812            0.0000000000
     20013      3877  TIP3      OH2             9.8477391654      -13.5691716508      -71.8361975789  TIP3      3813            0.0000000000
     20014      3877  TIP3      H1              9.9172528021      -13.6526020691      -72.7961469804  TIP3      3813            0.0000000000
     20015      3877  TIP3      H2             10.6750376797      -13.0839922388      -71.6546812244  TIP3      3813            0.0000000000
     20016      3878  TIP3      OH2             5.4872494801      -19.7542355456      -71.1413466600  TIP3      3814            0.0000000000
     20017      3878  TIP3      H1              5.0616072269      -19.8491492300      -70.2692894797  TIP3      3814            0.0000000000
     20018      3878  TIP3      H2              5.1624896373      -20.5712964222      -71.5618542579  TIP3      3814            0.0000000000
     20019      3879  TIP3      OH2             1.2596039599      -16.9984708347      -60.6518199520  TIP3      3815            0.0000000000
     20020      3879  TIP3      H1              0.5291984154      -17.0052113391      -60.0069045552  TIP3      3815            0.0000000000
     20021      3879  TIP3      H2              1.2008459255      -16.0974083806      -61.0453699000  TIP3      3815            0.0000000000
     20022      3880  TIP3      OH2             1.2224260815      -16.8897834286      -65.8361648199  TIP3      3816            0.0000000000
     20023      3880  TIP3      H1              0.2813436471      -17.1521863061      -65.9195024320  TIP3      3816            0.0000000000
     20024      3880  TIP3      H2              1.5798629668      -17.1933992730      -66.6973953264  TIP3      3816            0.0000000000
     20025      3881  TIP3      OH2             6.7434210025      -16.4043970752      -67.1111452974  TIP3      3817            0.0000000000
     20026      3881  TIP3      H1              6.3571161286      -15.5545906547      -67.4234832858  TIP3      3817            0.0000000000
     20027      3881  TIP3      H2              7.4334437644      -16.5587163643      -67.7783779816  TIP3      3817            0.0000000000
     20028      3882  TIP3      OH2             5.7596922765      -16.1849420991      -55.6189212803  TIP3      3818            0.0000000000
     20029      3882  TIP3      H1              5.2691146932      -16.9990843343      -55.3374898051  TIP3      3818            0.0000000000
     20030      3882  TIP3      H2              6.6036620354      -16.2740688048      -55.1430947099  TIP3      3818            0.0000000000
     20031      3883  TIP3      OH2             7.7913028177      -16.8881964249      -64.1780668809  TIP3      3819            0.0000000000
     20032      3883  TIP3      H1              7.4731857755      -16.3228106616      -64.9020295476  TIP3      3819            0.0000000000
     20033      3883  TIP3      H2              7.8455963159      -17.7397604402      -64.6408462452  TIP3      3819            0.0000000000
     20034      3884  TIP3      OH2            -1.1278428615      -16.7613062303      -59.0269025105  TIP3      3820            0.0000000000
     20035      3884  TIP3      H1             -0.9985280380      -16.3640722876      -58.1491552449  TIP3      3820            0.0000000000
     20036      3884  TIP3      H2             -1.5573922380      -17.6001067494      -58.7973487018  TIP3      3820            0.0000000000
     20037      3885  TIP3      OH2             2.2095881412      -19.0488490615      -71.7815039600  TIP3      3821            0.0000000000
     20038      3885  TIP3      H1              1.8327799980      -19.8348117654      -71.3390416720  TIP3      3821            0.0000000000
     20039      3885  TIP3      H2              1.7333092148      -19.0377518076      -72.6124567840  TIP3      3821            0.0000000000
     20040      3886  TIP3      OH2            -4.4367811372      -19.6495555271      -64.9957515317  TIP3      3822            0.0000000000
     20041      3886  TIP3      H1             -3.7298148097      -19.6696004453      -64.3205690530  TIP3      3822            0.0000000000
     20042      3886  TIP3      H2             -4.0247234400      -20.0392347046      -65.7897186882  TIP3      3822            0.0000000000
     20043      3887  TIP3      OH2            -3.2871855411      -18.9571589649      -69.7147159570  TIP3      3823            0.0000000000
     20044      3887  TIP3      H1             -2.6521223183      -18.3721605817      -70.1742882586  TIP3      3823            0.0000000000
     20045      3887  TIP3      H2             -3.8875359279      -18.2733587012      -69.3502634778  TIP3      3823            0.0000000000
     20046      3888  TIP3      OH2             6.9374073541      -15.3311436118      -59.6816020427  TIP3      3824            0.0000000000
     20047      3888  TIP3      H1              7.3431920567      -16.0308095603      -60.2421636224  TIP3      3824            0.0000000000
     20048      3888  TIP3      H2              6.4648854205      -15.8524710842      -59.0075375423  TIP3      3824            0.0000000000
     20049      3889  TIP3      OH2             3.7580311103      -19.2637259270      -64.7964163933  TIP3      3825            0.0000000000
     20050      3889  TIP3      H1              2.8292565673      -19.4087633983      -64.5185171650  TIP3      3825            0.0000000000
     20051      3889  TIP3      H2              4.2407517082      -19.5537530692      -64.0031644117  TIP3      3825            0.0000000000
     20052      3890  TIP3      OH2            -1.4298925791      -17.7759484419      -65.9598907655  TIP3      3826            0.0000000000
     20053      3890  TIP3      H1             -2.3152617985      -17.6484853975      -66.3570683549  TIP3      3826            0.0000000000
     20054      3890  TIP3      H2             -1.1387957846      -18.6380878926      -66.3159613889  TIP3      3826            0.0000000000
     20055      3891  TIP3      OH2             2.1965991603      -17.6931589444      -68.2990613685  TIP3      3827            0.0000000000
     20056      3891  TIP3      H1              3.1592624804      -17.6530129575      -68.1792228633  TIP3      3827            0.0000000000
     20057      3891  TIP3      H2              1.9869959321      -17.0735999655      -69.0237043913  TIP3      3827            0.0000000000
     20058      3892  TIP3      OH2             8.1943772793      -20.1949178593      -61.5915445593  TIP3      3828            0.0000000000
     20059      3892  TIP3      H1              7.5124357820      -20.0852286051      -60.8994504415  TIP3      3828            0.0000000000
     20060      3892  TIP3      H2              7.6856572533      -20.4470297099      -62.3739737568  TIP3      3828            0.0000000000
     20061      3893  TIP3      OH2             0.8579656530      -16.4794724686      -70.7311094690  TIP3      3829            0.0000000000
     20062      3893  TIP3      H1              0.4077392476      -16.9437356269      -71.4410459256  TIP3      3829            0.0000000000
     20063      3893  TIP3      H2              1.7430804707      -16.3631965882      -71.1295897793  TIP3      3829            0.0000000000
     20064      3894  TIP3      OH2            11.3668188754       -4.4928646568      -55.2619783112  TIP3      3830            0.0000000000
     20065      3894  TIP3      H1             11.6467354416       -4.1159369197      -56.1143865714  TIP3      3830            0.0000000000
     20066      3894  TIP3      H2             12.0457758494       -4.1405145395      -54.6611486549  TIP3      3830            0.0000000000
     20067      3895  TIP3      OH2            -0.9669854494      -11.9946282508      -55.6552807198  TIP3      3831            0.0000000000
     20068      3895  TIP3      H1             -0.2338091688      -11.7541633820      -55.0625559466  TIP3      3831            0.0000000000
     20069      3895  TIP3      H2             -1.7267371155      -11.9627841891      -55.0356119978  TIP3      3831            0.0000000000
     20070      3896  TIP3      OH2             5.0454261458      -16.5871481004      -62.9085086724  TIP3      3832            0.0000000000
     20071      3896  TIP3      H1              5.6435457102      -17.1234721500      -63.4406559065  TIP3      3832            0.0000000000
     20072      3896  TIP3      H2              4.8637763141      -17.1641136932      -62.1525507226  TIP3      3832            0.0000000000
     20073      3897  TIP3      OH2            -0.0147101661      -20.4592924780      -66.4552616702  TIP3      3833            0.0000000000
     20074      3897  TIP3      H1             -0.3196607748      -21.3791062534      -66.4229960730  TIP3      3833            0.0000000000
     20075      3897  TIP3      H2              0.7928979122      -20.5602332062      -66.9871706786  TIP3      3833            0.0000000000
     20076      3898  TIP3      OH2             3.7228341257      -18.2490124500      -60.5567700029  TIP3      3834            0.0000000000
     20077      3898  TIP3      H1              2.8859144267      -17.7423892522      -60.4487499085  TIP3      3834            0.0000000000
     20078      3898  TIP3      H2              4.2539473290      -17.9164399779      -59.8078540751  TIP3      3834            0.0000000000
     20079      3899  TIP3      OH2             4.2742837708      -12.0363589839      -68.7864757887  TIP3      3835            0.0000000000
     20080      3899  TIP3      H1              3.4673498246      -12.5033726139      -69.1036619195  TIP3      3835            0.0000000000
     20081      3899  TIP3      H2              4.0341479348      -11.8616417041      -67.8561273064  TIP3      3835            0.0000000000
     20082      3900  TIP3      OH2            11.4949580806      -12.8072397934      -59.9939358433  TIP3      3836            0.0000000000
     20083      3900  TIP3      H1             12.0276358149      -12.3170256741      -60.6509983160  TIP3      3836            0.0000000000
     20084      3900  TIP3      H2             10.6255133361      -12.8091575532      -60.4410508223  TIP3      3836            0.0000000000
     20085      3901  TIP3      OH2             8.1227371943      -19.2024955642      -70.6847909281  TIP3      3837            0.0000000000
     20086      3901  TIP3      H1              7.1594201592      -19.0958165843      -70.7861735067  TIP3      3837            0.0000000000
     20087      3901  TIP3      H2              8.4354925775      -18.3847363803      -70.2506926167  TIP3      3837            0.0000000000
     20088      3902  TIP3      OH2             5.7583493517      -11.7333963036      -57.5561344475  TIP3      3838            0.0000000000
     20089      3902  TIP3      H1              5.4146535421      -12.1955391620      -56.7840661853  TIP3      3838            0.0000000000
     20090      3902  TIP3      H2              5.4704294272      -10.8252681169      -57.4070509427  TIP3      3838            0.0000000000
     20091      3903  TIP3      OH2             8.8237423149      -17.2840677743      -68.9665246305  TIP3      3839            0.0000000000
     20092      3903  TIP3      H1              9.7025812444      -17.4311372118      -68.5445446878  TIP3      3839            0.0000000000
     20093      3903  TIP3      H2              8.9584283716      -16.4566472370      -69.4612990301  TIP3      3839            0.0000000000
     20094      3904  TIP3      OH2            -0.6188552083      -12.6223629004      -62.9981927152  TIP3      3840            0.0000000000
     20095      3904  TIP3      H1              0.0369435268      -12.7294562450      -63.7109539032  TIP3      3840            0.0000000000
     20096      3904  TIP3      H2             -0.5531569883      -13.4685038537      -62.5223326140  TIP3      3840            0.0000000000
     20097      3905  TIP3      OH2             6.3787257626      -10.6258360067      -69.8032408498  TIP3      3841            0.0000000000
     20098      3905  TIP3      H1              6.0337368464       -9.7667136010      -69.4959925037  TIP3      3841            0.0000000000
     20099      3905  TIP3      H2              5.6330238683      -11.2175607438      -69.5732266481  TIP3      3841            0.0000000000
     20100      3906  TIP3      OH2            -3.6275920003      -14.2495509942      -57.7439885804  TIP3      3842            0.0000000000
     20101      3906  TIP3      H1             -3.4856515577      -14.6999454423      -56.8875637987  TIP3      3842            0.0000000000
     20102      3906  TIP3      H2             -4.2549122133      -14.8390029801      -58.1996879113  TIP3      3842            0.0000000000
     20103      3907  TIP3      OH2             3.3879681462      -14.6726837593      -55.5864741226  TIP3      3843            0.0000000000
     20104      3907  TIP3      H1              3.0469076410      -15.0295800234      -56.4218208234  TIP3      3843            0.0000000000
     20105      3907  TIP3      H2              4.2993162382      -15.0293252097      -55.5878468522  TIP3      3843            0.0000000000
     20106      3908  TIP3      OH2             8.0987039460       -9.3260551775      -57.5805812173  TIP3      3844            0.0000000000
     20107      3908  TIP3      H1              7.1706591077       -9.1702941083      -57.8243783362  TIP3      3844            0.0000000000
     20108      3908  TIP3      H2              8.0422119425       -9.0360098576      -56.6484735739  TIP3      3844            0.0000000000
     20109      3909  TIP3      OH2            13.7383000488      -17.1441754731      -69.1975244824  TIP3      3845            0.0000000000
     20110      3909  TIP3      H1             13.1281499683      -17.4174876341      -69.9169651541  TIP3      3845            0.0000000000
     20111      3909  TIP3      H2             13.8071979691      -16.1995525671      -69.4456924282  TIP3      3845            0.0000000000
     20112      3910  TIP3      OH2            13.7251763460      -11.3098626077      -56.4377289208  TIP3      3846            0.0000000000
     20113      3910  TIP3      H1             12.8292330119      -11.0785119733      -56.7838769923  TIP3      3846            0.0000000000
     20114      3910  TIP3      H2             14.2583916681      -11.3673699544      -57.2610511637  TIP3      3846            0.0000000000
     20115      3911  TIP3      OH2            12.0465740565       -8.3746140915      -68.7907281567  TIP3      3847            0.0000000000
     20116      3911  TIP3      H1             11.6238430654       -9.2028461986      -68.5627362921  TIP3      3847            0.0000000000
     20117      3911  TIP3      H2             12.3426572357       -8.5182301645      -69.7220812940  TIP3      3847            0.0000000000
     20118      3912  TIP3      OH2             9.2463373839      -13.5186940171      -61.7158058017  TIP3      3848            0.0000000000
     20119      3912  TIP3      H1              8.3042849666      -13.7192961858      -61.8414202140  TIP3      3848            0.0000000000
     20120      3912  TIP3      H2              9.6773704098      -14.2605275822      -62.1811723016  TIP3      3848            0.0000000000
     20121      3913  TIP3      OH2             1.6085419476       -9.4537600267      -65.8658387605  TIP3      3849            0.0000000000
     20122      3913  TIP3      H1              2.2344247719       -8.7067847811      -65.6924476849  TIP3      3849            0.0000000000
     20123      3913  TIP3      H2              0.7819590453       -8.9741860320      -65.9431432939  TIP3      3849            0.0000000000
     20124      3914  TIP3      OH2            -2.4919753742      -14.3141513670      -71.1571954718  TIP3      3850            0.0000000000
     20125      3914  TIP3      H1             -1.9053723598      -13.6950942068      -70.6771516468  TIP3      3850            0.0000000000
     20126      3914  TIP3      H2             -3.3688013608      -14.0754368922      -70.7915033291  TIP3      3850            0.0000000000
     20127      3915  TIP3      OH2             3.2082881618      -11.5367089119      -66.0723667420  TIP3      3851            0.0000000000
     20128      3915  TIP3      H1              2.8198514137      -10.6337031975      -66.0494022489  TIP3      3851            0.0000000000
     20129      3915  TIP3      H2              2.4889589410      -12.0362137226      -65.6414271646  TIP3      3851            0.0000000000
     20130      3916  TIP3      OH2             3.6060629395       -7.3214868471      -59.5828640581  TIP3      3852            0.0000000000
     20131      3916  TIP3      H1              4.0906642655       -6.5755765035      -59.9816068692  TIP3      3852            0.0000000000
     20132      3916  TIP3      H2              4.2719121812       -7.6791445096      -58.9781693576  TIP3      3852            0.0000000000
     20133      3917  TIP3      OH2             1.4511080989       -5.7981683503      -67.2230962452  TIP3      3853            0.0000000000
     20134      3917  TIP3      H1              0.8391148425       -6.2851654386      -66.6441204846  TIP3      3853            0.0000000000
     20135      3917  TIP3      H2              2.1707574078       -5.7327449848      -66.5473190129  TIP3      3853            0.0000000000
     20136      3918  TIP3      OH2             7.0895516264      -11.3679980169      -60.0795730187  TIP3      3854            0.0000000000
     20137      3918  TIP3      H1              6.8237759175      -11.5409788143      -59.1507572372  TIP3      3854            0.0000000000
     20138      3918  TIP3      H2              7.7530109996      -12.0583407570      -60.2484589686  TIP3      3854            0.0000000000
     20139      3919  TIP3      OH2             9.4347984379      -10.2349651472      -70.8618635640  TIP3      3855            0.0000000000
     20140      3919  TIP3      H1              9.7650017501      -10.7813415407      -70.1284043555  TIP3      3855            0.0000000000
     20141      3919  TIP3      H2              8.4989526620      -10.4686853002      -70.8488881028  TIP3      3855            0.0000000000
     20142      3920  TIP3      OH2             9.9825085629       -6.7639967940      -57.5947373366  TIP3      3856            0.0000000000
     20143      3920  TIP3      H1              9.2646297165       -7.2484880822      -58.0442878932  TIP3      3856            0.0000000000
     20144      3920  TIP3      H2             10.1446277814       -6.0668509680      -58.2677260026  TIP3      3856            0.0000000000
     20145      3921  TIP3      OH2            14.0162623299       -5.9031916720      -70.6666573663  TIP3      3857            0.0000000000
     20146      3921  TIP3      H1             14.6727893992       -5.2369013619      -70.9090514185  TIP3      3857            0.0000000000
     20147      3921  TIP3      H2             13.2274256452       -5.3264360696      -70.5452877650  TIP3      3857            0.0000000000
     20148      3922  TIP3      OH2            -1.9660216362      -19.5904801252      -58.1891639466  TIP3      3858            0.0000000000
     20149      3922  TIP3      H1             -2.8494736197      -19.1965500480      -58.1657799510  TIP3      3858            0.0000000000
     20150      3922  TIP3      H2             -2.1244313233      -20.4392451286      -57.7417254912  TIP3      3858            0.0000000000
     20151      3923  TIP3      OH2            10.2328870742      -11.6427344457      -68.6955885117  TIP3      3859            0.0000000000
     20152      3923  TIP3      H1             10.0004102796      -12.4631049753      -68.2189155349  TIP3      3859            0.0000000000
     20153      3923  TIP3      H2             11.1901797644      -11.5972686606      -68.5426536281  TIP3      3859            0.0000000000
     20154      3924  TIP3      OH2            -2.3787955976       -7.7495483827      -59.7751140425  TIP3      3860            0.0000000000
     20155      3924  TIP3      H1             -2.0176260014       -8.6486114834      -59.7653239383  TIP3      3860            0.0000000000
     20156      3924  TIP3      H2             -2.1064975734       -7.4277535476      -58.9068857280  TIP3      3860            0.0000000000
     20157      3925  TIP3      OH2             2.3658937778       -9.6383543152      -70.0309536775  TIP3      3861            0.0000000000
     20158      3925  TIP3      H1              2.6535330863      -10.1635279016      -69.2783929938  TIP3      3861            0.0000000000
     20159      3925  TIP3      H2              2.4648516192       -8.7172104389      -69.7056578478  TIP3      3861            0.0000000000
     20160      3926  TIP3      OH2            -1.1385667590      -12.4042281480      -69.6585763086  TIP3      3862            0.0000000000
     20161      3926  TIP3      H1             -1.7862332843      -11.9953338850      -69.0422560191  TIP3      3862            0.0000000000
     20162      3926  TIP3      H2             -0.5116885666      -11.6671234645      -69.8081341157  TIP3      3862            0.0000000000
     20163      3927  TIP3      OH2             6.8011221004      -19.7291439326      -59.1974711299  TIP3      3863            0.0000000000
     20164      3927  TIP3      H1              7.5061892812      -19.6888624027      -58.5439615365  TIP3      3863            0.0000000000
     20165      3927  TIP3      H2              6.4160136507      -20.6113174646      -58.9876797040  TIP3      3863            0.0000000000
     20166      3928  TIP3      OH2             7.6409953035      -20.2202710016      -68.1486721727  TIP3      3864            0.0000000000
     20167      3928  TIP3      H1              7.7278439777      -19.6596205763      -68.9426684247  TIP3      3864            0.0000000000
     20168      3928  TIP3      H2              8.0505993536      -19.6602168930      -67.4629024163  TIP3      3864            0.0000000000
     20169      3929  TIP3      OH2             5.1388989970       -8.0359702486      -69.4684069349  TIP3      3865            0.0000000000
     20170      3929  TIP3      H1              4.3439192917       -7.4994327365      -69.2383317614  TIP3      3865            0.0000000000
     20171      3929  TIP3      H2              5.7224782677       -7.3694216852      -69.8466322304  TIP3      3865            0.0000000000
     20172      3930  TIP3      OH2             4.7410978431      -18.4499215616      -67.3168381358  TIP3      3866            0.0000000000
     20173      3930  TIP3      H1              5.4837999848      -17.8204483315      -67.2799926161  TIP3      3866            0.0000000000
     20174      3930  TIP3      H2              4.4363032213      -18.5543832675      -66.3942494360  TIP3      3866            0.0000000000
     20175      3931  TIP3      OH2             5.3242173381      -17.3468476110      -58.1331023691  TIP3      3867            0.0000000000
     20176      3931  TIP3      H1              5.3665663035      -16.8363679748      -57.3022627291  TIP3      3867            0.0000000000
     20177      3931  TIP3      H2              5.9301708537      -18.0939215105      -58.0257022754  TIP3      3867            0.0000000000
     20178      3932  TIP3      OH2             5.5698319752      -21.3384416651      -66.3908787991  TIP3      3868            0.0000000000
     20179      3932  TIP3      H1              5.2258867185      -20.6679441531      -65.7835166756  TIP3      3868            0.0000000000
     20180      3932  TIP3      H2              6.2274932797      -20.8200275369      -66.9002269696  TIP3      3868            0.0000000000
     20181      3933  TIP3      OH2             2.6263326748       -6.9543438244      -69.3304088311  TIP3      3869            0.0000000000
     20182      3933  TIP3      H1              2.7573776371       -6.1229293948      -69.8240028137  TIP3      3869            0.0000000000
     20183      3933  TIP3      H2              2.2573260703       -6.5842885665      -68.4878220102  TIP3      3869            0.0000000000
     20184      3934  TIP3      OH2             1.1421091354      -20.2541245034      -69.6689029339  TIP3      3870            0.0000000000
     20185      3934  TIP3      H1              1.1765092218      -19.3447740575      -69.3360776253  TIP3      3870            0.0000000000
     20186      3934  TIP3      H2              2.0635018494      -20.5232842326      -69.4872531774  TIP3      3870            0.0000000000
     20187      3935  TIP3      OH2            11.4536975235      -19.5161681941      -57.2983387310  TIP3      3871            0.0000000000
     20188      3935  TIP3      H1             10.5205390942      -19.2194225610      -57.4241010400  TIP3      3871            0.0000000000
     20189      3935  TIP3      H2             11.7371651974      -19.5814806582      -58.2262764529  TIP3      3871            0.0000000000
     20190      3936  TIP3      OH2            10.0793161309      -15.7278279040      -63.3001600031  TIP3      3872            0.0000000000
     20191      3936  TIP3      H1              9.2548315822      -16.1927034400      -63.5464608172  TIP3      3872            0.0000000000
     20192      3936  TIP3      H2             10.5787300767      -16.4011357261      -62.7845532949  TIP3      3872            0.0000000000
     20193      3937  TIP3      OH2            -0.4857063357       -9.8304676612      -70.5466693938  TIP3      3873            0.0000000000
     20194      3937  TIP3      H1              0.1513015389       -9.1450430918      -70.3245883720  TIP3      3873            0.0000000000
     20195      3937  TIP3      H2              0.0397095761      -10.2348635570      -71.2738307451  TIP3      3873            0.0000000000
     20196      3938  TIP3      OH2            -2.1904771026      -17.1039436444      -71.3982257149  TIP3      3874            0.0000000000
     20197      3938  TIP3      H1             -2.1857619330      -16.1338788753      -71.2706579928  TIP3      3874            0.0000000000
     20198      3938  TIP3      H2             -3.0418072593      -17.2423626584      -71.8276067446  TIP3      3874            0.0000000000
     20199      3939  TIP3      OH2            11.1419264391       -6.4683324738      -61.5797557666  TIP3      3875            0.0000000000
     20200      3939  TIP3      H1             11.0536124679       -5.8451856666      -62.3287688162  TIP3      3875            0.0000000000
     20201      3939  TIP3      H2             12.1121363108       -6.4440752280      -61.4360844460  TIP3      3875            0.0000000000
     20202      3940  TIP3      OH2            -1.3755710196      -22.2536431728      -62.8855446393  TIP3      3876            0.0000000000
     20203      3940  TIP3      H1             -1.6106100144      -22.3413466324      -63.8330416289  TIP3      3876            0.0000000000
     20204      3940  TIP3      H2             -1.7105951075      -23.1089369787      -62.5382206360  TIP3      3876            0.0000000000
     20205      3941  TIP3      OH2            -2.4633228791       -8.4672343399      -66.6727085981  TIP3      3877            0.0000000000
     20206      3941  TIP3      H1             -3.3062790916       -7.9991932375      -66.7347511313  TIP3      3877            0.0000000000
     20207      3941  TIP3      H2             -1.9632814866       -7.9919031536      -67.3524652743  TIP3      3877            0.0000000000
     20208      3942  TIP3      OH2            -3.2493003001       -5.7753764511      -55.3781185789  TIP3      3878            0.0000000000
     20209      3942  TIP3      H1             -2.6245109062       -5.9466036582      -54.6473222840  TIP3      3878            0.0000000000
     20210      3942  TIP3      H2             -3.6086685069       -6.6640758736      -55.5470476723  TIP3      3878            0.0000000000
     20211      3943  TIP3      OH2             1.4825434747       -6.8558165509      -53.7817283599  TIP3      3879            0.0000000000
     20212      3943  TIP3      H1              2.2300025481       -7.3614700694      -53.4335661478  TIP3      3879            0.0000000000
     20213      3943  TIP3      H2              1.4465830600       -7.1487389645      -54.7105617046  TIP3      3879            0.0000000000
     20214      3944  TIP3      OH2             5.5007066390       -7.4079155674      -72.4597070156  TIP3      3880            0.0000000000
     20215      3944  TIP3      H1              4.9377112075       -8.0515135034      -72.0070598847  TIP3      3880            0.0000000000
     20216      3944  TIP3      H2              6.3398674308       -7.8761969810      -72.5558118901  TIP3      3880            0.0000000000
     20217      3945  TIP3      OH2             7.9380201240       -8.4599730309      -54.9913603587  TIP3      3881            0.0000000000
     20218      3945  TIP3      H1              7.6276955756       -9.3482933933      -54.7115616984  TIP3      3881            0.0000000000
     20219      3945  TIP3      H2              8.7248427499       -8.3437956442      -54.4231900126  TIP3      3881            0.0000000000
     20220      3946  TIP3      OH2            10.0986686666       -7.6221401281      -72.1214892372  TIP3      3882            0.0000000000
     20221      3946  TIP3      H1             10.4829232560       -8.3827439930      -71.6464801198  TIP3      3882            0.0000000000
     20222      3946  TIP3      H2             10.8364660636       -7.0783428437      -72.4665767946  TIP3      3882            0.0000000000
     20223      3947  TIP3      OH2            -3.3475153317      -12.0198779129      -54.3603878162  TIP3      3883            0.0000000000
     20224      3947  TIP3      H1             -3.1710081952      -12.9307619681      -54.6558152597  TIP3      3883            0.0000000000
     20225      3947  TIP3      H2             -4.0583478898      -11.7570800860      -54.9684924574  TIP3      3883            0.0000000000
     20226      3948  TIP3      OH2             1.1394120509      -11.8061668273      -72.0008705794  TIP3      3884            0.0000000000
     20227      3948  TIP3      H1              1.2819470574      -12.6870391000      -71.6572908424  TIP3      3884            0.0000000000
     20228      3948  TIP3      H2              1.6816169965      -11.7979079595      -72.8067821267  TIP3      3884            0.0000000000
     20229      3949  TIP3      OH2             3.3977005850      -12.0091506280      -54.9944784395  TIP3      3885            0.0000000000
     20230      3949  TIP3      H1              3.0753298045      -11.6726076062      -55.8532548705  TIP3      3885            0.0000000000
     20231      3949  TIP3      H2              3.4467304587      -12.9896340250      -55.1193435970  TIP3      3885            0.0000000000
     20232      3950  TIP3      OH2             9.0840993595      -12.1733645384      -57.5874581906  TIP3      3886            0.0000000000
     20233      3950  TIP3      H1              9.8928109644      -11.6143239074      -57.6181156400  TIP3      3886            0.0000000000
     20234      3950  TIP3      H2              8.4093646764      -11.4767910114      -57.5686232208  TIP3      3886            0.0000000000
     20235      3951  TIP3      OH2            -2.3648312463      -14.7785701163      -54.9804691800  TIP3      3887            0.0000000000
     20236      3951  TIP3      H1             -1.9385002943      -15.6394014831      -55.0564316273  TIP3      3887            0.0000000000
     20237      3951  TIP3      H2             -2.5897334351      -14.7609895630      -54.0363983992  TIP3      3887            0.0000000000
     20238      3952  TIP3      OH2             2.2950868487      -13.6250774974      -69.8838835777  TIP3      3888            0.0000000000
     20239      3952  TIP3      H1              1.7163762406      -14.1433498569      -69.2998487769  TIP3      3888            0.0000000000
     20240      3952  TIP3      H2              2.5812053411      -14.2949018950      -70.5410549110  TIP3      3888            0.0000000000
     20241      3953  TIP3      OH2             1.5046832153      -15.8666938429      -57.6623660493  TIP3      3889            0.0000000000
     20242      3953  TIP3      H1              0.9206839936      -15.1339612824      -57.4061112306  TIP3      3889            0.0000000000
     20243      3953  TIP3      H2              1.9348647479      -15.4795188224      -58.4449665038  TIP3      3889            0.0000000000
     20244      3954  TIP3      OH2             3.2982711934      -15.5541337201      -71.5693414789  TIP3      3890            0.0000000000
     20245      3954  TIP3      H1              3.1612902833      -15.4996403328      -72.5402915732  TIP3      3890            0.0000000000
     20246      3954  TIP3      H2              4.2516827956      -15.3425296520      -71.5493803704  TIP3      3890            0.0000000000
     20247      3955  TIP3      OH2             6.6051774359      -13.2469860461      -54.2804347681  TIP3      3891            0.0000000000
     20248      3955  TIP3      H1              7.5494927992      -13.3036838992      -54.4683276202  TIP3      3891            0.0000000000
     20249      3955  TIP3      H2              6.4282394553      -14.0318899940      -53.7353866174  TIP3      3891            0.0000000000
     20250      3956  TIP3      OH2            12.7232659282      -13.2202541908       72.7322355269  TIP3      3892            0.0000000000
     20251      3956  TIP3      H1             12.4239663748      -13.4928363066       71.8529155082  TIP3      3892            0.0000000000
     20252      3956  TIP3      H2             12.7022424870      -12.2385975710       72.6513155296  TIP3      3892            0.0000000000
     20253      3957  TIP3      OH2             1.9442891900      -18.4759200424      -56.6131420876  TIP3      3893            0.0000000000
     20254      3957  TIP3      H1              2.0912005014      -19.1457277773      -57.3065598665  TIP3      3893            0.0000000000
     20255      3957  TIP3      H2              1.8716786328      -17.6572995165      -57.1439749769  TIP3      3893            0.0000000000
     20256      3958  TIP3      OH2             2.3100489987      -19.8365131944      -59.0340659553  TIP3      3894            0.0000000000
     20257      3958  TIP3      H1              2.8334825768      -19.5356717253      -59.8102475776  TIP3      3894            0.0000000000
     20258      3958  TIP3      H2              1.4342658598      -20.0528675269      -59.4230497155  TIP3      3894            0.0000000000
     20259      3959  TIP3      OH2             3.8563815919      -14.5462284308      -58.7899509946  TIP3      3895            0.0000000000
     20260      3959  TIP3      H1              4.6201639327      -14.7262434275      -59.3516807514  TIP3      3895            0.0000000000
     20261      3959  TIP3      H2              3.4830887041      -13.7268905280      -59.1572294080  TIP3      3895            0.0000000000
     20262      3960  TIP3      OH2             8.2481175052      -16.8548632048      -53.8578510678  TIP3      3896            0.0000000000
     20263      3960  TIP3      H1              8.4993615341      -17.7884797861      -53.9277146150  TIP3      3896            0.0000000000
     20264      3960  TIP3      H2              9.1067333519      -16.4011329240      -53.7952289483  TIP3      3896            0.0000000000
     20265      3961  TIP3      OH2             9.6232301246      -14.0165801925      -55.6112052727  TIP3      3897            0.0000000000
     20266      3961  TIP3      H1              9.3522924566      -13.3280670107      -56.2565607121  TIP3      3897            0.0000000000
     20267      3961  TIP3      H2             10.5775373043      -14.0589474051      -55.8209004939  TIP3      3897            0.0000000000
     20268      3962  TIP3      OH2             0.4084101890      -17.2278545694      -54.6836697947  TIP3      3898            0.0000000000
     20269      3962  TIP3      H1             -0.3756307874      -17.7981199821      -54.8248625196  TIP3      3898            0.0000000000
     20270      3962  TIP3      H2              1.0449523403      -17.6112588597      -55.3152850128  TIP3      3898            0.0000000000
     20271      3963  TIP3      OH2             2.2387527288      -22.3376542061      -58.5512525613  TIP3      3899            0.0000000000
     20272      3963  TIP3      H1              2.7287415083      -21.4935501586      -58.7352338633  TIP3      3899            0.0000000000
     20273      3963  TIP3      H2              2.3373603479      -22.8780230548      -59.3342017120  TIP3      3899            0.0000000000
     20274      3964  TIP3      OH2             4.3937415308      -18.3017988222      -54.9984496843  TIP3      3900            0.0000000000
     20275      3964  TIP3      H1              4.0593311483      -18.5701873043      -54.1210738789  TIP3      3900            0.0000000000
     20276      3964  TIP3      H2              3.6181297450      -18.5001390046      -55.5532213363  TIP3      3900            0.0000000000
     20277      3965  TIP3      OH2             7.0865425191      -19.2042777771      -55.8934755179  TIP3      3901            0.0000000000
     20278      3965  TIP3      H1              6.1274785593      -19.1082264298      -55.7756822827  TIP3      3901            0.0000000000
     20279      3965  TIP3      H2              7.3372239705      -19.8062929724      -55.1677205216  TIP3      3901            0.0000000000
     20280      3966  TIP3      OH2             8.7272305054      -20.4510048705      -54.0112371267  TIP3      3902            0.0000000000
     20281      3966  TIP3      H1              8.6487479920      -21.4276441130      -54.0414417260  TIP3      3902            0.0000000000
     20282      3966  TIP3      H2              8.4455163650      -20.2162492126      -53.1053332859  TIP3      3902            0.0000000000
     20283      3967  TIP3      OH2            -1.5232578400      -19.2892202563      -54.8862702052  TIP3      3903            0.0000000000
     20284      3967  TIP3      H1             -1.3007558848      -20.0362818603      -55.4747659167  TIP3      3903            0.0000000000
     20285      3967  TIP3      H2             -1.6476156390      -19.7173975042      -54.0186846728  TIP3      3903            0.0000000000
     20286      3968  TIP3      OH2             3.6414373695       24.1931057154      -56.4036293412  TIP3      3904            0.0000000000
     20287      3968  TIP3      H1              4.1616473584       23.4035645040      -56.2255691027  TIP3      3904            0.0000000000
     20288      3968  TIP3      H2              3.1238608049       23.9523852147      -57.2024563117  TIP3      3904            0.0000000000
     20289      3969  TIP3      OH2             3.7401218288      -21.5629277357      -53.8474222491  TIP3      3905            0.0000000000
     20290      3969  TIP3      H1              3.5562708209      -22.0329356150      -54.6818497479  TIP3      3905            0.0000000000
     20291      3969  TIP3      H2              3.1197073320      -20.8166617380      -53.8937188193  TIP3      3905            0.0000000000
     20292      3970  TIP3      OH2             3.1643257154       -4.6462299596      -70.5881472321  TIP3      3906            0.0000000000
     20293      3970  TIP3      H1              4.1368505919       -4.6527985480      -70.5934453433  TIP3      3906            0.0000000000
     20294      3970  TIP3      H2              2.9697042192       -4.1699194505      -71.4110833567  TIP3      3906            0.0000000000
     20295      3971  TIP3      OH2            -3.4084987260      -10.1526271039      -71.0545178270  TIP3      3907            0.0000000000
     20296      3971  TIP3      H1             -2.4580688069       -9.9684189524      -70.9165058643  TIP3      3907            0.0000000000
     20297      3971  TIP3      H2             -3.3871941374      -10.7022591381      -71.8563263258  TIP3      3907            0.0000000000
     20298      3972  TIP3      OH2            -4.5039079828       -4.7849678455      -66.2244774589  TIP3      3908            0.0000000000
     20299      3972  TIP3      H1             -5.2219695000       -5.2864631709      -66.6721540853  TIP3      3908            0.0000000000
     20300      3972  TIP3      H2             -4.2054352257       -5.4194698425      -65.5453646200  TIP3      3908            0.0000000000
     20301      3973  TIP3      OH2            -3.6676173439       -6.6288883490      -64.3160185187  TIP3      3909            0.0000000000
     20302      3973  TIP3      H1             -4.0488325698       -7.4902454197      -64.0985745227  TIP3      3909            0.0000000000
     20303      3973  TIP3      H2             -3.4244092418       -6.2882105128      -63.4364545955  TIP3      3909            0.0000000000
     20304      3974  TIP3      OH2            13.8182042352       -5.7241613152      -61.4116842108  TIP3      3910            0.0000000000
     20305      3974  TIP3      H1             13.9286290119       -5.7133208076      -60.4472257933  TIP3      3910            0.0000000000
     20306      3974  TIP3      H2             14.6126793659       -5.2579807986      -61.6959789553  TIP3      3910            0.0000000000
     20307      3975  TIP3      OH2            13.4336682998       -6.2445868751      -58.4552882602  TIP3      3911            0.0000000000
     20308      3975  TIP3      H1             12.9556988388       -6.9999052107      -58.8579857969  TIP3      3911            0.0000000000
     20309      3975  TIP3      H2             13.8890642955       -6.7094344887      -57.7309442974  TIP3      3911            0.0000000000
     20310      3976  TIP3      OH2            11.8761469417      -10.5291408634      -53.7756483716  TIP3      3912            0.0000000000
     20311      3976  TIP3      H1             10.9617990268      -10.5295982414      -53.4290952242  TIP3      3912            0.0000000000
     20312      3976  TIP3      H2             12.2371978398       -9.7056266266      -53.3950520973  TIP3      3912            0.0000000000
     20313      3977  TIP3      OH2            13.2258098234      -12.1753275344      -68.4229454464  TIP3      3913            0.0000000000
     20314      3977  TIP3      H1             14.0712044652      -11.7574822377      -68.1896891510  TIP3      3913            0.0000000000
     20315      3977  TIP3      H2             13.1524073732      -12.8451578650      -67.7112317578  TIP3      3913            0.0000000000
     20316      3978  TIP3      OH2            13.5277457043      -14.0626761882      -66.4521399679  TIP3      3914            0.0000000000
     20317      3978  TIP3      H1             12.7722518875      -14.5856847550      -66.1013272171  TIP3      3914            0.0000000000
     20318      3978  TIP3      H2             14.1300785177      -13.9919478248      -65.6854860829  TIP3      3914            0.0000000000
     20319      3979  TIP3      OH2            13.2908813449      -11.4277738996      -61.4871051246  TIP3      3915            0.0000000000
     20320      3979  TIP3      H1             14.0843328312      -11.8305338331      -61.8804964479  TIP3      3915            0.0000000000
     20321      3979  TIP3      H2             13.4587700607      -10.4772868099      -61.6624720079  TIP3      3915            0.0000000000
     20322      3980  TIP3      OH2            11.8649512214       -8.5217894666      -59.2145570980  TIP3      3916            0.0000000000
     20323      3980  TIP3      H1             11.1755545909       -8.1522385118      -58.6417112194  TIP3      3916            0.0000000000
     20324      3980  TIP3      H2             11.3243941683       -8.8932018573      -59.9469651598  TIP3      3916            0.0000000000
     20325      3981  TIP3      OH2            13.8862341420      -14.2559189126      -70.0626144262  TIP3      3917            0.0000000000
     20326      3981  TIP3      H1             13.2760917667      -13.9676276168      -70.7785118960  TIP3      3917            0.0000000000
     20327      3981  TIP3      H2             13.7481389591      -13.5260022865      -69.4281288095  TIP3      3917            0.0000000000
     20328      3982  TIP3      OH2            12.2624382061      -17.0888914130      -71.4826030839  TIP3      3918            0.0000000000
     20329      3982  TIP3      H1             12.2784323220      -16.3869958949      -72.1458037076  TIP3      3918            0.0000000000
     20330      3982  TIP3      H2             11.9019464953      -17.8289668049      -72.0166784129  TIP3      3918            0.0000000000
     20331      3983  TIP3      OH2            11.3755981254      -15.6293436313      -65.8814357583  TIP3      3919            0.0000000000
     20332      3983  TIP3      H1             11.2259556315      -16.5814590125      -65.9616099996  TIP3      3919            0.0000000000
     20333      3983  TIP3      H2             11.0697659968      -15.4547720501      -64.9696301416  TIP3      3919            0.0000000000
     20334      3984  TIP3      OH2            -3.6193783621      -13.5346771317      -61.8238099380  TIP3      3920            0.0000000000
     20335      3984  TIP3      H1             -3.4617075356      -13.6254043977      -62.7906195885  TIP3      3920            0.0000000000
     20336      3984  TIP3      H2             -2.7231336345      -13.7413758186      -61.4882991274  TIP3      3920            0.0000000000
     20337      3985  TIP3      OH2            12.2542463328      -13.6725944367      -56.1830102047  TIP3      3921            0.0000000000
     20338      3985  TIP3      H1             12.8605202120      -14.4351502288      -56.0796395908  TIP3      3921            0.0000000000
     20339      3985  TIP3      H2             12.8588374565      -12.8999836138      -56.2045491220  TIP3      3921            0.0000000000
     20340      3986  TIP3      OH2            13.7450296466      -15.8184996295      -55.5572323914  TIP3      3922            0.0000000000
     20341      3986  TIP3      H1             12.8510021556      -16.1981166775      -55.6978458193  TIP3      3922            0.0000000000
     20342      3986  TIP3      H2             14.3069706342      -16.6163317592      -55.6203402591  TIP3      3922            0.0000000000
     20343      3987  TIP3      OH2            11.3971128674      -19.6234396260      -72.3057726514  TIP3      3923            0.0000000000
     20344      3987  TIP3      H1             12.0237253478      -20.0775879232      -71.7198372196  TIP3      3923            0.0000000000
     20345      3987  TIP3      H2             10.5432434452      -20.0621358744      -72.1949091146  TIP3      3923            0.0000000000
     20346      3988  TIP3      OH2            11.0117095320      -18.0395418605      -67.4820571460  TIP3      3924            0.0000000000
     20347      3988  TIP3      H1             11.3039737799      -18.9605888141      -67.3069018695  TIP3      3924            0.0000000000
     20348      3988  TIP3      H2             11.8426996649      -17.6472228297      -67.7739542418  TIP3      3924            0.0000000000
     20349      3989  TIP3      OH2            11.6722800437      -17.4873508754      -62.0040664245  TIP3      3925            0.0000000000
     20350      3989  TIP3      H1             12.6409057005      -17.3019508727      -62.0136967454  TIP3      3925            0.0000000000
     20351      3989  TIP3      H2             11.4981260470      -17.3848808009      -61.0563349172  TIP3      3925            0.0000000000
     20352      3990  TIP3      OH2            11.7347163834      -16.7792173676      -59.2251596623  TIP3      3926            0.0000000000
     20353      3990  TIP3      H1             10.8511126202      -16.4940817422      -58.9139417188  TIP3      3926            0.0000000000
     20354      3990  TIP3      H2             12.1763451066      -15.9250743700      -59.4468746734  TIP3      3926            0.0000000000
     20355      3991  TIP3      OH2            -3.9651657155      -18.2453983464      -55.6202963178  TIP3      3927            0.0000000000
     20356      3991  TIP3      H1             -3.0381527997      -18.5304208373      -55.4907871775  TIP3      3927            0.0000000000
     20357      3991  TIP3      H2             -4.4527922107      -19.0864115806      -55.4808713189  TIP3      3927            0.0000000000
     20358      3992  TIP3      OH2            14.1110664408      -22.6731186074      -53.7735333004  TIP3      3928            0.0000000000
     20359      3992  TIP3      H1             14.2478222936      -23.4016165576      -54.4227661002  TIP3      3928            0.0000000000
     20360      3992  TIP3      H2             14.0592827928      -21.9263812913      -54.4028755767  TIP3      3928            0.0000000000
     20361      3993  TIP3      OH2            11.7354950623      -20.7866065445      -67.4258528555  TIP3      3929            0.0000000000
     20362      3993  TIP3      H1             11.9524796131      -21.1837695557      -66.5516076457  TIP3      3929            0.0000000000
     20363      3993  TIP3      H2             11.0712330575      -21.4182778346      -67.7683865307  TIP3      3929            0.0000000000
     20364      3994  TIP3      OH2            -2.8057822764      -19.9297015626      -62.8275397481  TIP3      3930            0.0000000000
     20365      3994  TIP3      H1             -2.3530640743      -20.7524705957      -62.5596523239  TIP3      3930            0.0000000000
     20366      3994  TIP3      H2             -2.2165726435      -19.2398385219      -62.4883881393  TIP3      3930            0.0000000000
     20367      3995  TIP3      OH2            -4.5298825480      -16.9346562124      -61.8076008519  TIP3      3931            0.0000000000
     20368      3995  TIP3      H1             -3.9581471184      -17.2136781256      -62.5520633668  TIP3      3931            0.0000000000
     20369      3995  TIP3      H2             -4.0300546191      -16.1500003911      -61.5366941222  TIP3      3931            0.0000000000
     20370      3996  TIP3      OH2            13.5324476685      -20.6637318274      -55.5637279559  TIP3      3932            0.0000000000
     20371      3996  TIP3      H1             12.5986065611      -20.3925516184      -55.5945327767  TIP3      3932            0.0000000000
     20372      3996  TIP3      H2             13.5236067357      -21.2548803025      -56.3336454370  TIP3      3932            0.0000000000
     20373      3997  TIP3      OH2            13.5541359824      -20.7483284794      -70.8469014033  TIP3      3933            0.0000000000
     20374      3997  TIP3      H1             13.9648593533      -21.3853416671      -71.4505990498  TIP3      3933            0.0000000000
     20375      3997  TIP3      H2             14.2419041785      -20.0642282006      -70.7535805986  TIP3      3933            0.0000000000
     20376      3998  TIP3      OH2            -4.1945733620      -20.5802242118      -67.6720443806  TIP3      3934            0.0000000000
     20377      3998  TIP3      H1             -5.1423277756      -20.5032140159      -67.8654656284  TIP3      3934            0.0000000000
     20378      3998  TIP3      H2             -3.7672162789      -20.1699107904      -68.4486673850  TIP3      3934            0.0000000000
     20379      3999  TIP3      OH2            10.5781132559       -5.7669598874      -65.7948005355  TIP3      3935            0.0000000000
     20380      3999  TIP3      H1             11.2596502999       -6.0775744811      -66.4234040854  TIP3      3935            0.0000000000
     20381      3999  TIP3      H2             11.0909669300       -5.3148115967      -65.1196427937  TIP3      3935            0.0000000000
     20382      4000  TIP3      OH2            -4.1225746746      -21.8760543055      -59.3599131980  TIP3      3936            0.0000000000
     20383      4000  TIP3      H1             -4.7807515388      -22.1872741215      -58.7269533235  TIP3      3936            0.0000000000
     20384      4000  TIP3      H2             -4.6118488444      -21.2845545226      -59.9648842950  TIP3      3936            0.0000000000
     20385      4001  TIP3      OH2            -1.9481349608       -8.8666062351      -55.2842408368  TIP3      3937            0.0000000000
     20386      4001  TIP3      H1             -2.7838787423       -8.6206353306      -55.7165235045  TIP3      3937            0.0000000000
     20387      4001  TIP3      H2             -2.2157170340       -8.9444819376      -54.3657103679  TIP3      3937            0.0000000000
     20388      4002  TIP3      OH2             0.9312977583       -7.8277604185      -58.9946940668  TIP3      3938            0.0000000000
     20389      4002  TIP3      H1              0.6441800492       -6.9329399250      -59.2421894150  TIP3      3938            0.0000000000
     20390      4002  TIP3      H2              1.8556441733       -7.7595475937      -59.3107795395  TIP3      3938            0.0000000000
     20391      4003  TIP3      OH2             5.2469405247       -6.4149891050      -56.1131273960  TIP3      3939            0.0000000000
     20392      4003  TIP3      H1              5.3571832978       -6.7671559137      -55.2040922057  TIP3      3939            0.0000000000
     20393      4003  TIP3      H2              6.1586132866       -6.1038026988      -56.3210284518  TIP3      3939            0.0000000000
     20394      4004  TIP3      OH2             7.5338663451       -5.1375557110      -56.7755566080  TIP3      3940            0.0000000000
     20395      4004  TIP3      H1              8.2790689986       -5.7000267231      -57.0182502173  TIP3      3940            0.0000000000
     20396      4004  TIP3      H2              7.8950227151       -4.6827210268      -55.9849620408  TIP3      3940            0.0000000000
     20397      4005  TIP3      OH2            12.4843717890      -22.5411130713      -57.6442479669  TIP3      3941            0.0000000000
     20398      4005  TIP3      H1             11.6963363091      -22.1656783015      -58.0636243725  TIP3      3941            0.0000000000
     20399      4005  TIP3      H2             12.6653270291      -23.3492129300      -58.1437532889  TIP3      3941            0.0000000000
     20400      4006  TIP3      OH2            -1.6642049779       -4.5876064235      -59.0230352013  TIP3      3942            0.0000000000
     20401      4006  TIP3      H1             -2.3950132883       -4.0762616177      -59.4006882156  TIP3      3942            0.0000000000
     20402      4006  TIP3      H2             -1.9394791022       -4.7583495977      -58.1110406046  TIP3      3942            0.0000000000
     20403      4007  TIP3      OH2             0.8080373222       -4.9973150369      -59.8893131680  TIP3      3943            0.0000000000
     20404      4007  TIP3      H1             -0.0971724343       -4.8215199413      -59.5490368459  TIP3      3943            0.0000000000
     20405      4007  TIP3      H2              0.8012886337       -4.4919289379      -60.7244648236  TIP3      3943            0.0000000000
     20406      4008  TIP3      OH2             5.5381818839       -5.1258019580      -60.7462455679  TIP3      3944            0.0000000000
     20407      4008  TIP3      H1              5.0579644256       -4.5896078956      -61.4060462274  TIP3      3944            0.0000000000
     20408      4008  TIP3      H2              5.6632937313       -4.4755497751      -60.0189214392  TIP3      3944            0.0000000000
     20409      4009  TIP3      OH2             7.7566051933       -6.3737246103      -59.6734694591  TIP3      3945            0.0000000000
     20410      4009  TIP3      H1              6.9601924909       -6.0302923734      -60.1103187451  TIP3      3945            0.0000000000
     20411      4009  TIP3      H2              8.3098022937       -5.5775961851      -59.7589736294  TIP3      3945            0.0000000000
     20412      4010  TIP3      OH2            10.3700870005       -4.7726910013      -59.5312645949  TIP3      3946            0.0000000000
     20413      4010  TIP3      H1             10.3360700288       -3.8151116424      -59.7371133101  TIP3      3946            0.0000000000
     20414      4010  TIP3      H2             10.6007676036       -5.1693167591      -60.3966981089  TIP3      3946            0.0000000000
     20415      4011  TIP3      OH2            -2.1665651917       -5.9365250035      -62.0464735968  TIP3      3947            0.0000000000
     20416      4011  TIP3      H1             -2.2540063677       -6.4305240832      -61.2054894140  TIP3      3947            0.0000000000
     20417      4011  TIP3      H2             -1.3585798832       -6.3416517315      -62.4460404072  TIP3      3947            0.0000000000
     20418      4012  TIP3      OH2            -0.1656808723       -7.2456856427      -63.3328966060  TIP3      3948            0.0000000000
     20419      4012  TIP3      H1             -0.2204261923       -8.1975493065      -63.1408934312  TIP3      3948            0.0000000000
     20420      4012  TIP3      H2              0.7499788716       -7.0494873898      -63.0151749899  TIP3      3948            0.0000000000
     20421      4013  TIP3      OH2             2.2866555211       -6.7707265759      -62.1279759532  TIP3      3949            0.0000000000
     20422      4013  TIP3      H1              2.6404210089       -7.4245498528      -62.7754658878  TIP3      3949            0.0000000000
     20423      4013  TIP3      H2              2.6031508765       -7.0433141224      -61.2592886003  TIP3      3949            0.0000000000
     20424      4014  TIP3      OH2             5.8749567183      -20.9950082751      -63.3660194465  TIP3      3950            0.0000000000
     20425      4014  TIP3      H1              5.2840526566      -21.7170976505      -63.0662054690  TIP3      3950            0.0000000000
     20426      4014  TIP3      H2              6.5075296384      -21.5229373701      -63.8746328573  TIP3      3950            0.0000000000
     20427      4015  TIP3      OH2            11.2298996763      -22.4729009382      -63.1331305123  TIP3      3951            0.0000000000
     20428      4015  TIP3      H1             11.7740788799      -22.3760514380      -63.9447220460  TIP3      3951            0.0000000000
     20429      4015  TIP3      H2             10.3491035469      -22.7456650879      -63.4535879913  TIP3      3951            0.0000000000
     20430      4016  TIP3      OH2            12.7875352018      -21.7716076829      -65.1665201661  TIP3      3952            0.0000000000
     20431      4016  TIP3      H1             13.4360304302      -22.4134925005      -65.4772739531  TIP3      3952            0.0000000000
     20432      4016  TIP3      H2             13.3224243087      -20.9627660165      -64.9834325946  TIP3      3952            0.0000000000
     20433      4017  TIP3      OH2            -1.7333160025      -22.5669020199      -65.4963992553  TIP3      3953            0.0000000000
     20434      4017  TIP3      H1             -2.4535542303      -22.6929854692      -66.1270837795  TIP3      3953            0.0000000000
     20435      4017  TIP3      H2             -1.2006218874      -23.3635560576      -65.5963517145  TIP3      3953            0.0000000000
     20436      4018  TIP3      OH2            -2.8417306581      -22.3167950737      -69.3261824072  TIP3      3954            0.0000000000
     20437      4018  TIP3      H1             -2.5145387159      -21.8425182471      -70.1119358877  TIP3      3954            0.0000000000
     20438      4018  TIP3      H2             -3.7104973010      -21.9368279781      -69.1384748373  TIP3      3954            0.0000000000
     20439      4019  TIP3      OH2             2.7810724750      -22.3822214117      -65.8183798505  TIP3      3955            0.0000000000
     20440      4019  TIP3      H1              3.7189568938      -22.1474269568      -65.8298130062  TIP3      3955            0.0000000000
     20441      4019  TIP3      H2              2.7279101477      -22.9350057227      -65.0198115752  TIP3      3955            0.0000000000
     20442      4020  TIP3      OH2             8.3727160029      -22.5129865553      -64.1878667162  TIP3      3956            0.0000000000
     20443      4020  TIP3      H1              8.5253446065      -22.4252431528      -65.1286941189  TIP3      3956            0.0000000000
     20444      4020  TIP3      H2              8.2300698537      -23.4573577549      -64.0591136664  TIP3      3956            0.0000000000
     20445      4021  TIP3      OH2             9.8541187565      -22.3864164302      -68.4269258601  TIP3      3957            0.0000000000
     20446      4021  TIP3      H1              9.0625579991      -21.8177578052      -68.5401733969  TIP3      3957            0.0000000000
     20447      4021  TIP3      H2              9.5531830838      -23.1347075731      -67.9031705512  TIP3      3957            0.0000000000
     20448      4022  TIP3      OH2            -2.9974897210       -6.7681547498      -68.7447987389  TIP3      3958            0.0000000000
     20449      4022  TIP3      H1             -3.6268585269       -6.7782167649      -69.4940429292  TIP3      3958            0.0000000000
     20450      4022  TIP3      H2             -2.9802209745       -5.8185228131      -68.5908003537  TIP3      3958            0.0000000000
     20451      4023  TIP3      OH2            -1.1090100296      -20.9454147434      -71.2429518144  TIP3      3959            0.0000000000
     20452      4023  TIP3      H1             -0.5000226557      -21.3778753670      -71.8531693870  TIP3      3959            0.0000000000
     20453      4023  TIP3      H2             -0.4730531824      -20.5348081162      -70.6199774292  TIP3      3959            0.0000000000
     20454      4024  TIP3      OH2             3.8454695206      -20.5588413451      -68.8733315187  TIP3      3960            0.0000000000
     20455      4024  TIP3      H1              4.2194833683      -21.1035797419      -68.1573976158  TIP3      3960            0.0000000000
     20456      4024  TIP3      H2              3.9807766035      -19.6760798661      -68.4643062205  TIP3      3960            0.0000000000
     20457      4025  TIP3      OH2             5.8408597709       -5.4142378457      -70.5437557681  TIP3      3961            0.0000000000
     20458      4025  TIP3      H1              6.8191151622       -5.3081642439      -70.6247217564  TIP3      3961            0.0000000000
     20459      4025  TIP3      H2              5.6925244410       -6.0254947055      -71.2912949181  TIP3      3961            0.0000000000
     20460      4026  TIP3      OH2            12.5272991234       -5.9665613055      -67.7059799351  TIP3      3962            0.0000000000
     20461      4026  TIP3      H1             12.3705155636       -6.7537022544      -68.2771366958  TIP3      3962            0.0000000000
     20462      4026  TIP3      H2             12.4557906364       -5.2456960442      -68.3688275216  TIP3      3962            0.0000000000
     20463      4027  TIP3      OH2            -1.7285931387      -21.7944052468      -56.1724629672  TIP3      3963            0.0000000000
     20464      4027  TIP3      H1             -2.1978179853      -22.6050643722      -55.8523403178  TIP3      3963            0.0000000000
     20465      4027  TIP3      H2             -0.8926268983      -21.9348973522      -55.6749434915  TIP3      3963            0.0000000000
     20466      4028  TIP3      OH2             0.2729162033      -22.5636532255      -54.4775216445  TIP3      3964            0.0000000000
     20467      4028  TIP3      H1              1.1826780212      -22.8757848958      -54.6029653502  TIP3      3964            0.0000000000
     20468      4028  TIP3      H2             -0.1469082601      -23.3602406772      -54.1117032247  TIP3      3964            0.0000000000
     20469      4029  TIP3      OH2            -1.3410282802       -5.9695093155      -71.7059034681  TIP3      3965            0.0000000000
     20470      4029  TIP3      H1             -1.4348283719       -5.5151649635      -70.8570761718  TIP3      3965            0.0000000000
     20471      4029  TIP3      H2             -0.4549942964       -6.3588718783      -71.6426075180  TIP3      3965            0.0000000000
     20472      4030  TIP3      OH2             8.6997139439       23.5962200741      -54.3321940571  TIP3      3966            0.0000000000
     20473      4030  TIP3      H1              8.5793388378       22.9555512980      -53.6175456770  TIP3      3966            0.0000000000
     20474      4030  TIP3      H2              9.5938120916       23.4533809163      -54.6662574949  TIP3      3966            0.0000000000
     20475      4031  TIP3      OH2            11.8099160763       -7.2133066829      -55.6682686607  TIP3      3967            0.0000000000
     20476      4031  TIP3      H1             11.0215892155       -7.3350721916      -56.2404533944  TIP3      3967            0.0000000000
     20477      4031  TIP3      H2             11.6936616419       -6.2650725047      -55.4541367020  TIP3      3967            0.0000000000
     20478      4032  TIP3      OH2            17.4405451906      -14.4071887156      -60.6399179816  TIP3      3968            0.0000000000
     20479      4032  TIP3      H1             17.5324724014      -15.1077231820      -59.9605692670  TIP3      3968            0.0000000000
     20480      4032  TIP3      H2             18.1846470318      -13.8395132441      -60.4036631088  TIP3      3968            0.0000000000
     20481      4033  TIP3      OH2            18.3871092528       -9.9536689753      -62.1631719440  TIP3      3969            0.0000000000
     20482      4033  TIP3      H1             18.0773889986      -10.8342084247      -62.4540112877  TIP3      3969            0.0000000000
     20483      4033  TIP3      H2             19.3439694138      -10.1435393958      -62.1225070516  TIP3      3969            0.0000000000
     20484      4034  TIP3      OH2            15.0131820749      -16.4068018712      -66.6379609046  TIP3      3970            0.0000000000
     20485      4034  TIP3      H1             14.5753280704      -15.5426960215      -66.7195475809  TIP3      3970            0.0000000000
     20486      4034  TIP3      H2             14.4664722176      -16.9659217075      -67.2071867265  TIP3      3970            0.0000000000
     20487      4035  TIP3      OH2            15.7541001652      -14.1687649471      -64.4570102648  TIP3      3971            0.0000000000
     20488      4035  TIP3      H1             16.0401677190      -15.0115931739      -64.0553649358  TIP3      3971            0.0000000000
     20489      4035  TIP3      H2             16.4047792665      -14.0600296172      -65.1678666986  TIP3      3971            0.0000000000
     20490      4036  TIP3      OH2            19.5014091345      -19.0753806147      -64.1994191885  TIP3      3972            0.0000000000
     20491      4036  TIP3      H1             19.9160391551      -18.3333736278      -64.6854320695  TIP3      3972            0.0000000000
     20492      4036  TIP3      H2             19.3229719448      -19.7255355385      -64.9093917970  TIP3      3972            0.0000000000
     20493      4037  TIP3      OH2            16.4015461203      -16.7213343938      -63.4366911194  TIP3      3973            0.0000000000
     20494      4037  TIP3      H1             17.0854785976      -17.2574534213      -63.0011203994  TIP3      3973            0.0000000000
     20495      4037  TIP3      H2             16.5102012106      -17.0124112276      -64.3597002822  TIP3      3973            0.0000000000
     20496      4038  TIP3      OH2            21.5491958009      -15.1558419367      -64.1117974216  TIP3      3974            0.0000000000
     20497      4038  TIP3      H1             22.2329652570      -15.7383581990      -63.7289320073  TIP3      3974            0.0000000000
     20498      4038  TIP3      H2             21.0081998698      -15.8063014109      -64.6003862584  TIP3      3974            0.0000000000
     20499      4039  TIP3      OH2            18.6069684071      -20.2129650494      -60.1665860051  TIP3      3975            0.0000000000
     20500      4039  TIP3      H1             18.3609988932      -19.5905794662      -60.8961727506  TIP3      3975            0.0000000000
     20501      4039  TIP3      H2             17.9414948236      -19.9725554552      -59.4673829797  TIP3      3975            0.0000000000
     20502      4040  TIP3      OH2            21.2054356719      -12.5397160645      -59.9065836554  TIP3      3976            0.0000000000
     20503      4040  TIP3      H1             20.4467351062      -11.9549873762      -59.6721881373  TIP3      3976            0.0000000000
     20504      4040  TIP3      H2             21.8402813096      -11.8970166086      -60.2249348583  TIP3      3976            0.0000000000
     20505      4041  TIP3      OH2            18.2443722571      -18.3318327225      -62.0732796758  TIP3      3977            0.0000000000
     20506      4041  TIP3      H1             18.9009760105      -17.6510519089      -61.8128615878  TIP3      3977            0.0000000000
     20507      4041  TIP3      H2             18.7086396959      -18.7600997543      -62.8451644811  TIP3      3977            0.0000000000
     20508      4042  TIP3      OH2            19.6411083933      -10.5707515049      -59.0945153305  TIP3      3978            0.0000000000
     20509      4042  TIP3      H1             19.5880401646       -9.6537075598      -59.4162851226  TIP3      3978            0.0000000000
     20510      4042  TIP3      H2             18.7591621065      -10.6651398598      -58.6452067252  TIP3      3978            0.0000000000
     20511      4043  TIP3      OH2            15.6974871797      -10.9983525515      -68.2739586783  TIP3      3979            0.0000000000
     20512      4043  TIP3      H1             15.4644445347      -10.6374217327      -69.1541269845  TIP3      3979            0.0000000000
     20513      4043  TIP3      H2             15.7976447213      -10.1806951109      -67.7494852150  TIP3      3979            0.0000000000
     20514      4044  TIP3      OH2            22.8105021334      -22.7203061980      -62.4749896325  TIP3      3980            0.0000000000
     20515      4044  TIP3      H1             22.6664214683      -23.6654046016      -62.6631328576  TIP3      3980            0.0000000000
     20516      4044  TIP3      H2             21.9197339657      -22.3595271440      -62.4855776716  TIP3      3980            0.0000000000
     20517      4045  TIP3      OH2            19.9477203856      -13.2255680568      -65.3530509106  TIP3      3981            0.0000000000
     20518      4045  TIP3      H1             19.6720525201      -13.6141402148      -66.2140743933  TIP3      3981            0.0000000000
     20519      4045  TIP3      H2             20.5671138067      -13.9047070035      -64.9920598267  TIP3      3981            0.0000000000
     20520      4046  TIP3      OH2            21.2231966455       -9.9278415984      -62.6048927887  TIP3      3982            0.0000000000
     20521      4046  TIP3      H1             21.2532560058      -10.3469278883      -63.4790620487  TIP3      3982            0.0000000000
     20522      4046  TIP3      H2             22.1285320255      -10.1001025477      -62.2864632994  TIP3      3982            0.0000000000
     20523      4047  TIP3      OH2            20.2923970251      -14.4510447555      -61.6258739271  TIP3      3983            0.0000000000
     20524      4047  TIP3      H1             20.8668925600      -14.4450902269      -62.4195747412  TIP3      3983            0.0000000000
     20525      4047  TIP3      H2             20.7449262791      -13.7932634482      -61.0534942005  TIP3      3983            0.0000000000
     20526      4048  TIP3      OH2            21.2212868704      -10.1673032765      -56.9527994998  TIP3      3984            0.0000000000
     20527      4048  TIP3      H1             20.8952492599       -9.3604295723      -56.4944010819  TIP3      3984            0.0000000000
     20528      4048  TIP3      H2             20.6000716562      -10.2838623173      -57.7035372410  TIP3      3984            0.0000000000
     20529      4049  TIP3      OH2            18.2272419707      -13.8977084577      -57.8634935883  TIP3      3985            0.0000000000
     20530      4049  TIP3      H1             18.2754126639      -13.2309434011      -57.1536588459  TIP3      3985            0.0000000000
     20531      4049  TIP3      H2             17.2663182189      -13.8672398960      -58.0164659871  TIP3      3985            0.0000000000
     20532      4050  TIP3      OH2            19.5422840521       -8.0545439662      -56.2413674666  TIP3      3986            0.0000000000
     20533      4050  TIP3      H1             19.4362078510       -8.1446932356      -57.2077091385  TIP3      3986            0.0000000000
     20534      4050  TIP3      H2             18.6183594836       -8.1723226601      -55.9465961065  TIP3      3986            0.0000000000
     20535      4051  TIP3      OH2            18.9380162716      -14.2459671290      -67.7708670579  TIP3      3987            0.0000000000
     20536      4051  TIP3      H1             18.6474582354      -13.4349446227      -68.2327510851  TIP3      3987            0.0000000000
     20537      4051  TIP3      H2             18.2391969853      -14.8790829969      -67.9572286143  TIP3      3987            0.0000000000
     20538      4052  TIP3      OH2            15.0292883597      -11.7793559319      -58.7890846138  TIP3      3988            0.0000000000
     20539      4052  TIP3      H1             14.5924190519      -11.8621215959      -59.6561339288  TIP3      3988            0.0000000000
     20540      4052  TIP3      H2             15.1431924548      -12.7290021339      -58.5794221330  TIP3      3988            0.0000000000
     20541      4053  TIP3      OH2            14.8024829644       -9.0621862978      -62.0179355699  TIP3      3989            0.0000000000
     20542      4053  TIP3      H1             15.7625393796       -9.1595578523      -62.0805088397  TIP3      3989            0.0000000000
     20543      4053  TIP3      H2             14.7203314084       -8.2241068150      -61.5485414328  TIP3      3989            0.0000000000
     20544      4054  TIP3      OH2            18.0744760145       -6.1807817088      -65.8367244942  TIP3      3990            0.0000000000
     20545      4054  TIP3      H1             18.2123588337       -6.6020889316      -64.9592273088  TIP3      3990            0.0000000000
     20546      4054  TIP3      H2             17.2287356955       -6.5922100624      -66.0920788345  TIP3      3990            0.0000000000
     20547      4055  TIP3      OH2            17.3121960736      -10.4646832233      -57.8937699825  TIP3      3991            0.0000000000
     20548      4055  TIP3      H1             17.5308551470      -10.8004783463      -56.9982963991  TIP3      3991            0.0000000000
     20549      4055  TIP3      H2             16.4413498548      -10.8655472713      -58.0906732582  TIP3      3991            0.0000000000
     20550      4056  TIP3      OH2            19.9850873555      -21.4501003968      -62.0604632322  TIP3      3992            0.0000000000
     20551      4056  TIP3      H1             19.1370556899      -21.8809576684      -62.3353161189  TIP3      3992            0.0000000000
     20552      4056  TIP3      H2             19.6718650664      -20.9392011942      -61.2903527059  TIP3      3992            0.0000000000
     20553      4057  TIP3      OH2            20.0779225884      -17.0245536351      -60.6250640946  TIP3      3993            0.0000000000
     20554      4057  TIP3      H1             19.3206772572      -17.0239519844      -60.0136973056  TIP3      3993            0.0000000000
     20555      4057  TIP3      H2             20.0277495855      -16.1382796905      -61.0380677595  TIP3      3993            0.0000000000
     20556      4058  TIP3      OH2            20.0464987706      -16.8767586759      -65.8727847923  TIP3      3994            0.0000000000
     20557      4058  TIP3      H1             19.1064528836      -17.1625293804      -65.9185095501  TIP3      3994            0.0000000000
     20558      4058  TIP3      H2             20.4116842604      -17.2325409604      -66.7017547438  TIP3      3994            0.0000000000
     20559      4059  TIP3      OH2            17.7284466078      -16.7372361294      -59.0033574784  TIP3      3995            0.0000000000
     20560      4059  TIP3      H1             17.8520900756      -16.3559138095      -58.1214545512  TIP3      3995            0.0000000000
     20561      4059  TIP3      H2             17.3204138056      -17.5907204036      -58.7908111244  TIP3      3995            0.0000000000
     20562      4060  TIP3      OH2            21.1029315375      -19.0386400395      -71.7822912551  TIP3      3996            0.0000000000
     20563      4060  TIP3      H1             20.7341076943      -19.8337381016      -71.3493843768  TIP3      3996            0.0000000000
     20564      4060  TIP3      H2             20.6153308611      -19.0001780016      -72.6097789810  TIP3      3996            0.0000000000
     20565      4061  TIP3      OH2            14.4204035655      -19.6424044018      -64.9942294878  TIP3      3997            0.0000000000
     20566      4061  TIP3      H1             15.1265953324      -19.6673159614      -64.3182140940  TIP3      3997            0.0000000000
     20567      4061  TIP3      H2             14.8296216034      -20.0372158781      -65.7867535749  TIP3      3997            0.0000000000
     20568      4062  TIP3      OH2            15.5715327418      -18.9558933705      -69.7093260259  TIP3      3998            0.0000000000
     20569      4062  TIP3      H1             16.2142025788      -18.3666969802      -70.1540509078  TIP3      3998            0.0000000000
     20570      4062  TIP3      H2             14.9601496561      -18.2781544382      -69.3499353389  TIP3      3998            0.0000000000
     20571      4063  TIP3      OH2            22.0958790953      -19.0812026727      -64.6537162249  TIP3      3999            0.0000000000
     20572      4063  TIP3      H1             21.3209713468      -19.4850331651      -64.2290414580  TIP3      3999            0.0000000000
     20573      4063  TIP3      H2             22.7851044814      -19.2802134777      -64.0070893299  TIP3      3999            0.0000000000
     20574      4064  TIP3      OH2            17.4035352823      -17.7675356370      -65.9460513375  TIP3      4000            0.0000000000
     20575      4064  TIP3      H1             16.5236306133      -17.6441829907      -66.3596934238  TIP3      4000            0.0000000000
     20576      4064  TIP3      H2             17.6896813634      -18.6333409577      -66.3029628959  TIP3      4000            0.0000000000
     20577      4065  TIP3      OH2            21.1125435775      -17.7764263836      -68.3633669071  TIP3      4001            0.0000000000
     20578      4065  TIP3      H1             22.0072266833      -17.5216163297      -68.1537300415  TIP3      4001            0.0000000000
     20579      4065  TIP3      H2             20.8132432027      -17.1073450950      -69.0137432733  TIP3      4001            0.0000000000
     20580      4066  TIP3      OH2            19.7225006520      -16.5137910746      -70.7086769283  TIP3      4002            0.0000000000
     20581      4066  TIP3      H1             19.2144396574      -16.9337083587      -71.4110917899  TIP3      4002            0.0000000000
     20582      4066  TIP3      H2             20.5874109023      -16.3845969808      -71.1438031319  TIP3      4002            0.0000000000
     20583      4067  TIP3      OH2            17.8865370534      -11.9951648462      -55.6649963624  TIP3      4003            0.0000000000
     20584      4067  TIP3      H1             18.6296111867      -11.7559946995      -55.0811779582  TIP3      4003            0.0000000000
     20585      4067  TIP3      H2             17.1347182992      -11.9590140104      -55.0354587044  TIP3      4003            0.0000000000
     20586      4068  TIP3      OH2            18.9010780912      -20.4649196722      -66.4213649621  TIP3      4004            0.0000000000
     20587      4068  TIP3      H1             18.5277062065      -21.3623333489      -66.4223835438  TIP3      4004            0.0000000000
     20588      4068  TIP3      H2             19.6537786795      -20.5627894739      -67.0184473056  TIP3      4004            0.0000000000
     20589      4069  TIP3      OH2            22.4400695344      -18.3858191383      -60.2998274323  TIP3      4005            0.0000000000
     20590      4069  TIP3      H1             21.7429346547      -17.7360590098      -60.5304164258  TIP3      4005            0.0000000000
     20591      4069  TIP3      H2             23.0711333766      -17.8453431796      -59.8387913839  TIP3      4005            0.0000000000
     20592      4070  TIP3      OH2            22.9693136488      -12.1066522322      -68.8584991081  TIP3      4006            0.0000000000
     20593      4070  TIP3      H1             22.1395714275      -12.5850796958      -69.0489436131  TIP3      4006            0.0000000000
     20594      4070  TIP3      H2             22.9152893180      -11.9248017303      -67.9076180208  TIP3      4006            0.0000000000
     20595      4071  TIP3      OH2            18.2737238111      -12.6241176156      -62.9774735614  TIP3      4007            0.0000000000
     20596      4071  TIP3      H1             18.9044804703      -12.7333933123      -63.7102197871  TIP3      4007            0.0000000000
     20597      4071  TIP3      H2             18.3057524562      -13.4954855644      -62.5453185347  TIP3      4007            0.0000000000
     20598      4072  TIP3      OH2            15.2293098764      -14.2494889164      -57.7431823235  TIP3      4008            0.0000000000
     20599      4072  TIP3      H1             15.3700819307      -14.7003285274      -56.8872224562  TIP3      4008            0.0000000000
     20600      4072  TIP3      H2             14.6016150329      -14.8402501528      -58.1990514178  TIP3      4008            0.0000000000
     20601      4073  TIP3      OH2            22.3489520082      -14.6398310252      -55.6160226853  TIP3      4009            0.0000000000
     20602      4073  TIP3      H1             21.8532546444      -15.0324067906      -56.3484671010  TIP3      4009            0.0000000000
     20603      4073  TIP3      H2             23.1611054355      -15.1570109291      -55.5813804871  TIP3      4009            0.0000000000
     20604      4074  TIP3      OH2            20.5863924802       -9.1521708975      -65.5301287351  TIP3      4010            0.0000000000
     20605      4074  TIP3      H1             21.0841583102       -8.3831784708      -65.8462269733  TIP3      4010            0.0000000000
     20606      4074  TIP3      H2             19.7095675349       -8.9584711487      -65.8867638447  TIP3      4010            0.0000000000
     20607      4075  TIP3      OH2            16.3650867389      -14.3139855093      -71.1549740311  TIP3      4011            0.0000000000
     20608      4075  TIP3      H1             16.9513353768      -13.6928041689      -70.6773468304  TIP3      4011            0.0000000000
     20609      4075  TIP3      H2             15.4859588073      -14.0726810543      -70.7968835923  TIP3      4011            0.0000000000
     20610      4076  TIP3      OH2            22.0184945338      -11.5223221592      -66.0881136473  TIP3      4012            0.0000000000
     20611      4076  TIP3      H1             21.6856817277      -10.6069071690      -66.0129603689  TIP3      4012            0.0000000000
     20612      4076  TIP3      H2             21.3024274469      -12.0210433733      -65.6510513393  TIP3      4012            0.0000000000
     20613      4077  TIP3      OH2            22.4768898498       -7.3627085278      -59.7469974730  TIP3      4013            0.0000000000
     20614      4077  TIP3      H1             22.8971506487       -6.5075989351      -59.9010017333  TIP3      4013            0.0000000000
     20615      4077  TIP3      H2             23.0347674590       -7.7290751190      -59.0462509541  TIP3      4013            0.0000000000
     20616      4078  TIP3      OH2            20.7234190134       -6.4791634454      -66.5758105003  TIP3      4014            0.0000000000
     20617      4078  TIP3      H1             19.7439753649       -6.4242223623      -66.4431608408  TIP3      4014            0.0000000000
     20618      4078  TIP3      H2             20.9803381945       -5.6650649337      -66.1257076078  TIP3      4014            0.0000000000
     20619      4079  TIP3      OH2            16.8882621355      -19.5873623764      -58.1822602164  TIP3      4015            0.0000000000
     20620      4079  TIP3      H1             16.0024267052      -19.1984402536      -58.1632800048  TIP3      4015            0.0000000000
     20621      4079  TIP3      H2             16.7311936651      -20.4416980072      -57.7444088317  TIP3      4015            0.0000000000
     20622      4080  TIP3      OH2            16.4973075676       -7.7552040854      -59.7700494605  TIP3      4016            0.0000000000
     20623      4080  TIP3      H1             16.8430221153       -8.6594327577      -59.7541193069  TIP3      4016            0.0000000000
     20624      4080  TIP3      H2             16.7531253955       -7.4356934311      -58.8972059642  TIP3      4016            0.0000000000
     20625      4081  TIP3      OH2            21.2439982936       -9.6482369503      -70.0349736907  TIP3      4017            0.0000000000
     20626      4081  TIP3      H1             21.5068135555      -10.1996811569      -69.2917942851  TIP3      4017            0.0000000000
     20627      4081  TIP3      H2             21.3287967072       -8.7203407920      -69.7352250688  TIP3      4017            0.0000000000
     20628      4082  TIP3      OH2            17.7402233613      -12.4078697326      -69.6512710163  TIP3      4018            0.0000000000
     20629      4082  TIP3      H1             17.0921405108      -11.9945057308      -69.0398497703  TIP3      4018            0.0000000000
     20630      4082  TIP3      H2             18.3469397044      -11.6590770850      -69.8226687048  TIP3      4018            0.0000000000
     20631      4083  TIP3      OH2            21.3053567531       -6.9666612898      -69.3457165103  TIP3      4019            0.0000000000
     20632      4083  TIP3      H1             21.5233686864       -6.1544382869      -69.8517629772  TIP3      4019            0.0000000000
     20633      4083  TIP3      H2             21.1416521271       -6.6312900556      -68.4431498626  TIP3      4019            0.0000000000
     20634      4084  TIP3      OH2            19.8724537970      -20.2095736219      -69.6860649350  TIP3      4020            0.0000000000
     20635      4084  TIP3      H1             19.9678517541      -19.3145065385      -69.3356515145  TIP3      4020            0.0000000000
     20636      4084  TIP3      H2             20.8010179925      -20.4946065356      -69.5403807911  TIP3      4020            0.0000000000
     20637      4085  TIP3      OH2            18.4053450688       -9.8625756556      -70.5708690320  TIP3      4021            0.0000000000
     20638      4085  TIP3      H1             19.0455792191       -9.1889459568      -70.3173549556  TIP3      4021            0.0000000000
     20639      4085  TIP3      H2             18.9400579504      -10.2445145349      -71.3077697263  TIP3      4021            0.0000000000
     20640      4086  TIP3      OH2            16.6688992313      -17.1034774250      -71.3934891776  TIP3      4022            0.0000000000
     20641      4086  TIP3      H1             16.6685000816      -16.1322404204      -71.2689117100  TIP3      4022            0.0000000000
     20642      4086  TIP3      H2             15.8171117272      -17.2420671863      -71.8255953874  TIP3      4022            0.0000000000
     20643      4087  TIP3      OH2            17.4369820987      -22.2627927533      -62.8759863984  TIP3      4023            0.0000000000
     20644      4087  TIP3      H1             17.2580088281      -22.3377717209      -63.8355683820  TIP3      4023            0.0000000000
     20645      4087  TIP3      H2             17.1168234368      -23.1300082274      -62.5444218652  TIP3      4023            0.0000000000
     20646      4088  TIP3      OH2            16.4358821710       -8.4314847359      -66.6574499054  TIP3      4024            0.0000000000
     20647      4088  TIP3      H1             15.5647011417       -8.0112800865      -66.7328510399  TIP3      4024            0.0000000000
     20648      4088  TIP3      H2             16.8795863356       -7.9876837199      -67.3890265218  TIP3      4024            0.0000000000
     20649      4089  TIP3      OH2            15.6120037533       -5.7832727609      -55.3925724422  TIP3      4025            0.0000000000
     20650      4089  TIP3      H1             16.2406700665       -5.9517112778      -54.6584937186  TIP3      4025            0.0000000000
     20651      4089  TIP3      H2             15.2458521499       -6.6706336998      -55.5500714296  TIP3      4025            0.0000000000
     20652      4090  TIP3      OH2            20.3523639368       -6.8654693012      -53.7923930717  TIP3      4026            0.0000000000
     20653      4090  TIP3      H1             21.1296696246       -7.3410822441      -53.4477739309  TIP3      4026            0.0000000000
     20654      4090  TIP3      H2             20.2911307813       -7.1820601503      -54.7139759153  TIP3      4026            0.0000000000
     20655      4091  TIP3      OH2            15.5087845866      -12.0202522046      -54.3606943713  TIP3      4027            0.0000000000
     20656      4091  TIP3      H1             15.6868961384      -12.9306992192      -54.6566074800  TIP3      4027            0.0000000000
     20657      4091  TIP3      H2             14.7980480657      -11.7581564269      -54.9690114172  TIP3      4027            0.0000000000
     20658      4092  TIP3      OH2            19.9780218442      -11.8256744666      -72.0306278443  TIP3      4028            0.0000000000
     20659      4092  TIP3      H1             20.1317849605      -12.6762080239      -71.6106693401  TIP3      4028            0.0000000000
     20660      4092  TIP3      H2             20.5501548760      -11.8334957771      -72.8128473905  TIP3      4028            0.0000000000
     20661      4093  TIP3      OH2            22.2193446029      -11.9859359812      -54.9833213114  TIP3      4029            0.0000000000
     20662      4093  TIP3      H1             21.8723312817      -11.6410475508      -55.8345787885  TIP3      4029            0.0000000000
     20663      4093  TIP3      H2             22.2989537835      -12.9575618979      -55.1546171211  TIP3      4029            0.0000000000
     20664      4094  TIP3      OH2            16.4920326728      -14.7772557398      -54.9812419734  TIP3      4030            0.0000000000
     20665      4094  TIP3      H1             16.9145482889      -15.6385097390      -55.0595210751  TIP3      4030            0.0000000000
     20666      4094  TIP3      H2             16.2661351286      -14.7602230191      -54.0374828947  TIP3      4030            0.0000000000
     20667      4095  TIP3      OH2            21.0441454455      -13.6595726007      -69.9027625907  TIP3      4031            0.0000000000
     20668      4095  TIP3      H1             20.4841486364      -14.1784494001      -69.3041374245  TIP3      4031            0.0000000000
     20669      4095  TIP3      H2             21.3708875046      -14.3227476638      -70.5420197218  TIP3      4031            0.0000000000
     20670      4096  TIP3      OH2            20.3409164005      -15.8493067477      -57.6305006751  TIP3      4032            0.0000000000
     20671      4096  TIP3      H1             19.7189246080      -15.1405517670      -57.4067781640  TIP3      4032            0.0000000000
     20672      4096  TIP3      H2             20.7492410302      -15.4747932398      -58.4332427106  TIP3      4032            0.0000000000
     20673      4097  TIP3      OH2            22.1441151685      -15.5561962226      -71.5098145064  TIP3      4033            0.0000000000
     20674      4097  TIP3      H1             21.9305936182      -15.5620052932      -72.4677993861  TIP3      4033            0.0000000000
     20675      4097  TIP3      H2             23.0773505312      -15.3569367053      -71.6512008826  TIP3      4033            0.0000000000
     20676      4098  TIP3      OH2            20.8288966113      -18.5161838611      -56.6355381546  TIP3      4034            0.0000000000
     20677      4098  TIP3      H1             20.9498684654      -19.1768193187      -57.3421830745  TIP3      4034            0.0000000000
     20678      4098  TIP3      H2             20.7241611967      -17.6875577228      -57.1531041796  TIP3      4034            0.0000000000
     20679      4099  TIP3      OH2            21.1174782627      -19.9919247530      -58.9773513838  TIP3      4035            0.0000000000
     20680      4099  TIP3      H1             21.6398296644      -19.5492799434      -59.6887946900  TIP3      4035            0.0000000000
     20681      4099  TIP3      H2             20.2478750982      -20.0488993124      -59.4203006461  TIP3      4035            0.0000000000
     20682      4100  TIP3      OH2            22.4529431962      -14.7606286993      -59.1204301932  TIP3      4036            0.0000000000
     20683      4100  TIP3      H1             23.3217008162      -14.7775778580      -59.5457907645  TIP3      4036            0.0000000000
     20684      4100  TIP3      H2             22.2177773562      -13.8140217195      -59.2268030413  TIP3      4036            0.0000000000
     20685      4101  TIP3      OH2            19.2577865043      -17.2265415634      -54.6830175908  TIP3      4037            0.0000000000
     20686      4101  TIP3      H1             18.4734968977      -17.7852676070      -54.8481407548  TIP3      4037            0.0000000000
     20687      4101  TIP3      H2             19.9005288906      -17.6239315002      -55.3002665313  TIP3      4037            0.0000000000
     20688      4102  TIP3      OH2            21.0148445585      -22.4306349271      -58.4918306499  TIP3      4038            0.0000000000
     20689      4102  TIP3      H1             21.4481175530      -21.5515302545      -58.6836057994  TIP3      4038            0.0000000000
     20690      4102  TIP3      H2             21.1252796191      -22.9350444377      -59.2996141678  TIP3      4038            0.0000000000
     20691      4103  TIP3      OH2            22.6516962915      -17.8937907385      -54.5514604552  TIP3      4039            0.0000000000
     20692      4103  TIP3      H1             22.7760020200      -18.6412749056      -53.9471781266  TIP3      4039            0.0000000000
     20693      4103  TIP3      H2             22.2859018806      -18.3309133850      -55.3479511574  TIP3      4039            0.0000000000
     20694      4104  TIP3      OH2            17.3079228950      -19.2895271580      -54.8905668827  TIP3      4040            0.0000000000
     20695      4104  TIP3      H1             17.5494303377      -20.0353107829      -55.4706965553  TIP3      4040            0.0000000000
     20696      4104  TIP3      H2             17.2438860647      -19.7084240359      -54.0117088502  TIP3      4040            0.0000000000
     20697      4105  TIP3      OH2            22.5315610703       24.2675162175      -56.4184667329  TIP3      4041            0.0000000000
     20698      4105  TIP3      H1             23.0200297840       23.4610519379      -56.2402095133  TIP3      4041            0.0000000000
     20699      4105  TIP3      H2             21.9988250144       23.9698121346      -57.1877505108  TIP3      4041            0.0000000000
     20700      4106  TIP3      OH2            22.5440022992      -21.6225623595      -53.8045948450  TIP3      4042            0.0000000000
     20701      4106  TIP3      H1             22.4443585251      -21.9960529232      -54.7008045833  TIP3      4042            0.0000000000
     20702      4106  TIP3      H2             21.9523222194      -20.8444329736      -53.8301004741  TIP3      4042            0.0000000000
     20703      4107  TIP3      OH2            22.0917922645       -4.6224631770      -70.5496511588  TIP3      4043            0.0000000000
     20704      4107  TIP3      H1             23.0463040015       -4.6443849417      -70.6749165231  TIP3      4043            0.0000000000
     20705      4107  TIP3      H2             21.8389815222       -4.1755696151      -71.3864542386  TIP3      4043            0.0000000000
     20706      4108  TIP3      OH2            15.4513432967      -10.1504626385      -71.0473222948  TIP3      4044            0.0000000000
     20707      4108  TIP3      H1             16.4051578062       -9.9632419107      -70.9132401119  TIP3      4044            0.0000000000
     20708      4108  TIP3      H2             15.4739653488      -10.6926558995      -71.8543702072  TIP3      4044            0.0000000000
     20709      4109  TIP3      OH2            14.3864275432       -4.8253760407      -66.2431452603  TIP3      4045            0.0000000000
     20710      4109  TIP3      H1             13.6459066908       -5.3066325977      -66.6788410207  TIP3      4045            0.0000000000
     20711      4109  TIP3      H2             14.6539267348       -5.4649965509      -65.5535360208  TIP3      4045            0.0000000000
     20712      4110  TIP3      OH2            15.1623756025       -6.5976625850      -64.3146754520  TIP3      4046            0.0000000000
     20713      4110  TIP3      H1             14.8044318860       -7.4743689760      -64.1196644277  TIP3      4046            0.0000000000
     20714      4110  TIP3      H2             15.4529226692       -6.3055996554      -63.4348761009  TIP3      4046            0.0000000000
     20715      4111  TIP3      OH2            15.2335627729      -13.5313679704      -61.8256335347  TIP3      4047            0.0000000000
     20716      4111  TIP3      H1             15.3920904767      -13.6270723531      -62.7913892086  TIP3      4047            0.0000000000
     20717      4111  TIP3      H2             16.1282913396      -13.7432317545      -61.4875536773  TIP3      4047            0.0000000000
     20718      4112  TIP3      OH2            14.8953784125      -18.2456068815      -55.6235740535  TIP3      4048            0.0000000000
     20719      4112  TIP3      H1             15.8218329029      -18.5352826018      -55.4900521212  TIP3      4048            0.0000000000
     20720      4112  TIP3      H2             14.4048854184      -19.0844598049      -55.4818263608  TIP3      4048            0.0000000000
     20721      4113  TIP3      OH2            16.0527699207      -19.9291422360      -62.8250785370  TIP3      4049            0.0000000000
     20722      4113  TIP3      H1             16.5026361755      -20.7569634210      -62.5571116893  TIP3      4049            0.0000000000
     20723      4113  TIP3      H2             16.6564551483      -19.2501417465      -62.4963388335  TIP3      4049            0.0000000000
     20724      4114  TIP3      OH2            14.3278984454      -16.9331524842      -61.8126318964  TIP3      4050            0.0000000000
     20725      4114  TIP3      H1             14.9029605063      -17.2161746731      -62.5521525432  TIP3      4050            0.0000000000
     20726      4114  TIP3      H2             14.8275180214      -16.1503060837      -61.5364538889  TIP3      4050            0.0000000000
     20727      4115  TIP3      OH2            14.6630940321      -20.5765171567      -67.6726113111  TIP3      4051            0.0000000000
     20728      4115  TIP3      H1             13.7137746714      -20.5045869779      -67.8639677752  TIP3      4051            0.0000000000
     20729      4115  TIP3      H2             15.0870007564      -20.1680569982      -68.4483345923  TIP3      4051            0.0000000000
     20730      4116  TIP3      OH2            14.7339214772      -21.8751483716      -59.3593258427  TIP3      4052            0.0000000000
     20731      4116  TIP3      H1             14.0762657405      -22.1897691510      -58.7276717300  TIP3      4052            0.0000000000
     20732      4116  TIP3      H2             14.2443453230      -21.2849847110      -59.9653772218  TIP3      4052            0.0000000000
     20733      4117  TIP3      OH2            16.9089365143       -8.8659489618      -55.2890595031  TIP3      4053            0.0000000000
     20734      4117  TIP3      H1             16.0708145683       -8.6202362216      -55.7160013103  TIP3      4053            0.0000000000
     20735      4117  TIP3      H2             16.6473742608       -8.9427090564      -54.3691791712  TIP3      4053            0.0000000000
     20736      4118  TIP3      OH2            19.7549940586       -7.7681590068      -58.9633978097  TIP3      4054            0.0000000000
     20737      4118  TIP3      H1             19.4903563502       -6.8895246740      -59.2696731299  TIP3      4054            0.0000000000
     20738      4118  TIP3      H2             20.6943265860       -7.7450775330      -59.2341948694  TIP3      4054            0.0000000000
     20739      4119  TIP3      OH2            17.2046042201       -4.5930448971      -59.0254015597  TIP3      4055            0.0000000000
     20740      4119  TIP3      H1             16.4661696700       -4.0791923388      -59.3879258377  TIP3      4055            0.0000000000
     20741      4119  TIP3      H2             16.9293323537       -4.7639324423      -58.1120572710  TIP3      4055            0.0000000000
     20742      4120  TIP3      OH2            19.6623098534       -5.0557102510      -59.9967316204  TIP3      4056            0.0000000000
     20743      4120  TIP3      H1             18.8078417819       -4.8614573948      -59.5395734950  TIP3      4056            0.0000000000
     20744      4120  TIP3      H2             19.6026990976       -4.3952149389      -60.7074806914  TIP3      4056            0.0000000000
     20745      4121  TIP3      OH2            16.6980271422       -5.9552115080      -62.0712677852  TIP3      4057            0.0000000000
     20746      4121  TIP3      H1             16.6130648522       -6.4260061222      -61.2165345461  TIP3      4057            0.0000000000
     20747      4121  TIP3      H2             17.5126322544       -6.3455811565      -62.4492145419  TIP3      4057            0.0000000000
     20748      4122  TIP3      OH2            18.7744701538       -7.2296424547      -63.4257152992  TIP3      4058            0.0000000000
     20749      4122  TIP3      H1             18.6401697815       -8.1625888058      -63.1649820462  TIP3      4058            0.0000000000
     20750      4122  TIP3      H2             19.6320714256       -7.0565819158      -62.9924732820  TIP3      4058            0.0000000000
     20751      4123  TIP3      OH2            21.3965764160       -6.7725756680      -62.5306576953  TIP3      4059            0.0000000000
     20752      4123  TIP3      H1             21.5095529129       -7.7019050688      -62.7915519921  TIP3      4059            0.0000000000
     20753      4123  TIP3      H2             21.3473449053       -6.8183135115      -61.5650777331  TIP3      4059            0.0000000000
     20754      4124  TIP3      OH2            17.1322283924      -22.5582922343      -65.5073939697  TIP3      4060            0.0000000000
     20755      4124  TIP3      H1             16.4023749639      -22.6980406882      -66.1230480780  TIP3      4060            0.0000000000
     20756      4124  TIP3      H2             17.6432853674      -23.3675496517      -65.5969683604  TIP3      4060            0.0000000000
     20757      4125  TIP3      OH2            16.0097603404      -22.3205376593      -69.3259555643  TIP3      4061            0.0000000000
     20758      4125  TIP3      H1             16.3368181096      -21.8449981533      -70.1125206864  TIP3      4061            0.0000000000
     20759      4125  TIP3      H2             15.1400536543      -21.9377297623      -69.1415590752  TIP3      4061            0.0000000000
     20760      4126  TIP3      OH2            21.6704171012      -22.3494200583      -65.8707885533  TIP3      4062            0.0000000000
     20761      4126  TIP3      H1             22.5894806758      -22.0931421909      -65.7623753648  TIP3      4062            0.0000000000
     20762      4126  TIP3      H2             21.5435726391      -22.9013047128      -65.0696187378  TIP3      4062            0.0000000000
     20763      4127  TIP3      OH2            15.8640693675       -6.7781732670      -68.7616610621  TIP3      4063            0.0000000000
     20764      4127  TIP3      H1             15.2173061404       -6.7865499829      -69.5009087349  TIP3      4063            0.0000000000
     20765      4127  TIP3      H2             15.8635552291       -5.8248905616      -68.6188402817  TIP3      4063            0.0000000000
     20766      4128  TIP3      OH2            17.7830299237      -20.9650262542      -71.2648796037  TIP3      4064            0.0000000000
     20767      4128  TIP3      H1             18.4284644990      -21.3471897127      -71.8678224943  TIP3      4064            0.0000000000
     20768      4128  TIP3      H2             18.3850019492      -20.5310784427      -70.6194994986  TIP3      4064            0.0000000000
     20769      4129  TIP3      OH2            22.3729899188      -20.4678164632      -69.2816654290  TIP3      4065            0.0000000000
     20770      4129  TIP3      H1             22.7584476252      -21.1574212232      -68.7282831841  TIP3      4065            0.0000000000
     20771      4129  TIP3      H2             22.7192539036      -19.6778377131      -68.8622935414  TIP3      4065            0.0000000000
     20772      4130  TIP3      OH2            17.1279689910      -21.7916690473      -56.1833728847  TIP3      4066            0.0000000000
     20773      4130  TIP3      H1             16.6533974972      -22.5919562092      -55.8478095158  TIP3      4066            0.0000000000
     20774      4130  TIP3      H2             17.9579104614      -21.9377207741      -55.6778884708  TIP3      4066            0.0000000000
     20775      4131  TIP3      OH2            19.0813459882      -22.5964141651      -54.5542815743  TIP3      4067            0.0000000000
     20776      4131  TIP3      H1             20.0018756790      -22.8725997060      -54.6379549211  TIP3      4067            0.0000000000
     20777      4131  TIP3      H2             18.7146900512      -23.3856906441      -54.1223523417  TIP3      4067            0.0000000000
     20778      4132  TIP3      OH2            17.6085816932       -5.9453112916      -71.6908958418  TIP3      4068            0.0000000000
     20779      4132  TIP3      H1             17.4205858482       -5.5261964417      -70.8418935072  TIP3      4068            0.0000000000
     20780      4132  TIP3      H2             18.4597941069       -6.3915121205      -71.5644112233  TIP3      4068            0.0000000000
     20781      4133  TIP3      OH2           -11.4267393234        5.5190780147      -65.7159482086  TIP3      4069            0.0000000000
     20782      4133  TIP3      H1            -11.4696346309        6.4963637990      -65.7287528211  TIP3      4069            0.0000000000
     20783      4133  TIP3      H2            -12.1832143806        5.2911660516      -66.2797601010  TIP3      4069            0.0000000000
     20784      4134  TIP3      OH2           -12.5557764843        4.7186945314      -62.2060462320  TIP3      4070            0.0000000000
     20785      4134  TIP3      H1            -12.6318751053        4.1211806101      -61.4557964374  TIP3      4070            0.0000000000
     20786      4134  TIP3      H2            -12.9919308093        4.2226716658      -62.9217947373  TIP3      4070            0.0000000000
     20787      4135  TIP3      OH2           -20.2279669334        4.4297487151      -60.6669547599  TIP3      4071            0.0000000000
     20788      4135  TIP3      H1            -20.1484838526        3.7430961978      -59.9730695480  TIP3      4071            0.0000000000
     20789      4135  TIP3      H2            -19.4944601962        5.0173328057      -60.4203151392  TIP3      4071            0.0000000000
     20790      4136  TIP3      OH2            -8.9434096457        7.7170426473      -63.8909776580  TIP3      4072            0.0000000000
     20791      4136  TIP3      H1             -9.3315788041        6.9949877715      -63.3911249108  TIP3      4072            0.0000000000
     20792      4136  TIP3      H2             -8.8836340985        8.4135554656      -63.2138535538  TIP3      4072            0.0000000000
     20793      4137  TIP3      OH2           -19.3824835268        8.9084510758      -62.1609320973  TIP3      4073            0.0000000000
     20794      4137  TIP3      H1            -19.6525948578        8.0161049099      -62.4600367660  TIP3      4073            0.0000000000
     20795      4137  TIP3      H2            -18.4231934115        8.7469403652      -62.1188703962  TIP3      4073            0.0000000000
     20796      4138  TIP3      OH2           -22.6240829739        2.4561821711      -66.7434435059  TIP3      4074            0.0000000000
     20797      4138  TIP3      H1            -23.0347371266        3.3306383220      -66.6677099334  TIP3      4074            0.0000000000
     20798      4138  TIP3      H2            -23.2960999809        1.8949080636      -67.1120461496  TIP3      4074            0.0000000000
     20799      4139  TIP3      OH2           -21.9149099514        4.6570533397      -64.4476029206  TIP3      4075            0.0000000000
     20800      4139  TIP3      H1            -21.6618099944        3.7998043783      -64.0538928657  TIP3      4075            0.0000000000
     20801      4139  TIP3      H2            -21.2477548508        4.8038826711      -65.1290793585  TIP3      4075            0.0000000000
     20802      4140  TIP3      OH2           -11.7857801292       12.9025737146      -63.6777841298  TIP3      4076            0.0000000000
     20803      4140  TIP3      H1            -11.1421226802       12.2114333058      -63.9659143336  TIP3      4076            0.0000000000
     20804      4140  TIP3      H2            -12.0412188217       12.5223017180      -62.8310840330  TIP3      4076            0.0000000000
     20805      4141  TIP3      OH2           -14.2300646338        7.1528575926      -61.6714317281  TIP3      4077            0.0000000000
     20806      4141  TIP3      H1            -13.9048150762        6.5521790491      -62.3573564747  TIP3      4077            0.0000000000
     20807      4141  TIP3      H2            -13.3965806225        7.3277784021      -61.1947376558  TIP3      4077            0.0000000000
     20808      4142  TIP3      OH2            -5.7150023515       -1.1326069462      -61.0319883548  TIP3      4078            0.0000000000
     20809      4142  TIP3      H1             -5.4581893601       -0.6081111088      -60.2367170237  TIP3      4078            0.0000000000
     20810      4142  TIP3      H2             -5.0480524700       -0.7949317274      -61.6531310921  TIP3      4078            0.0000000000
     20811      4143  TIP3      OH2           -11.0624312691        1.6313981085      -61.4324445800  TIP3      4079            0.0000000000
     20812      4143  TIP3      H1            -11.0289048935        0.6816426904      -61.5934688106  TIP3      4079            0.0000000000
     20813      4143  TIP3      H2            -11.1983481072        1.8936568073      -62.3699590148  TIP3      4079            0.0000000000
     20814      4144  TIP3      OH2           -17.9843745582       -0.2657592645      -64.1904952011  TIP3      4080            0.0000000000
     20815      4144  TIP3      H1            -17.8341862078        0.5464163678      -64.7121220725  TIP3      4080            0.0000000000
     20816      4144  TIP3      H2            -18.3322027410       -0.8580883413      -64.8959064119  TIP3      4080            0.0000000000
     20817      4145  TIP3      OH2           -10.2193253393       -0.1964479358      -65.7952315956  TIP3      4081            0.0000000000
     20818      4145  TIP3      H1             -9.5598436571       -0.5153072626      -65.1455045250  TIP3      4081            0.0000000000
     20819      4145  TIP3      H2             -9.6744807955        0.3986424310      -66.3397011996  TIP3      4081            0.0000000000
     20820      4146  TIP3      OH2           -21.1992923804        2.1701687175      -63.5083906832  TIP3      4082            0.0000000000
     20821      4146  TIP3      H1            -20.6182809704        1.5873951786      -62.9986832341  TIP3      4082            0.0000000000
     20822      4146  TIP3      H2            -21.1321706772        1.7638584656      -64.3870258283  TIP3      4082            0.0000000000
     20823      4147  TIP3      OH2           -16.2000451233        3.6862145474      -64.0835407272  TIP3      4083            0.0000000000
     20824      4147  TIP3      H1            -15.4911798294        3.1115221936      -63.7486269748  TIP3      4083            0.0000000000
     20825      4147  TIP3      H2            -16.6808224681        3.0470300001      -64.6451843871  TIP3      4083            0.0000000000
     20826      4148  TIP3      OH2            -5.2610455583        0.2054792508      -58.7252483615  TIP3      4084            0.0000000000
     20827      4148  TIP3      H1             -5.7620381578        1.0364138433      -58.8425722990  TIP3      4084            0.0000000000
     20828      4148  TIP3      H2             -5.1401999960        0.1949587322      -57.7626435730  TIP3      4084            0.0000000000
     20829      4149  TIP3      OH2           -18.9730005314       -1.3747700734      -60.1660038797  TIP3      4085            0.0000000000
     20830      4149  TIP3      H1            -19.2939760891       -0.8057537322      -60.8975289963  TIP3      4085            0.0000000000
     20831      4149  TIP3      H2            -19.6653513520       -1.1672525287      -59.4892384378  TIP3      4085            0.0000000000
     20832      4150  TIP3      OH2           -11.7835765218        8.0799776773      -66.5937363940  TIP3      4086            0.0000000000
     20833      4150  TIP3      H1            -12.0139529742        7.8277141600      -67.5054270501  TIP3      4086            0.0000000000
     20834      4150  TIP3      H2            -12.0640224695        9.0199236631      -66.5499020671  TIP3      4086            0.0000000000
     20835      4151  TIP3      OH2           -16.5399419845        6.2594981801      -59.9386943111  TIP3      4087            0.0000000000
     20836      4151  TIP3      H1            -17.2340330477        6.8970903312      -59.6641527283  TIP3      4087            0.0000000000
     20837      4151  TIP3      H2            -15.8321244249        6.8613912598      -60.2268442105  TIP3      4087            0.0000000000
     20838      4152  TIP3      OH2            -8.4451009210       -0.7708703210      -63.7238358144  TIP3      4088            0.0000000000
     20839      4152  TIP3      H1             -8.5589745993       -1.6269521353      -63.3057122969  TIP3      4088            0.0000000000
     20840      4152  TIP3      H2             -7.6307246835       -0.4390337307      -63.3169026836  TIP3      4088            0.0000000000
     20841      4153  TIP3      OH2           -19.4424395173        0.4623404063      -62.0606500426  TIP3      4089            0.0000000000
     20842      4153  TIP3      H1            -18.8266686822        1.1729152001      -61.7774004638  TIP3      4089            0.0000000000
     20843      4153  TIP3      H2            -18.9611353319        0.0976534750      -62.8524650228  TIP3      4089            0.0000000000
     20844      4154  TIP3      OH2           -18.0419355302        8.2918355981      -59.1161894809  TIP3      4090            0.0000000000
     20845      4154  TIP3      H1            -18.1101520376        9.2102087245      -59.4322659341  TIP3      4090            0.0000000000
     20846      4154  TIP3      H2            -18.9241033003        8.1813633921      -58.6861518599  TIP3      4090            0.0000000000
     20847      4155  TIP3      OH2           -21.5375149007        8.1496334397      -68.3357167075  TIP3      4091            0.0000000000
     20848      4155  TIP3      H1            -22.2522558316        8.0713152365      -69.0083902706  TIP3      4091            0.0000000000
     20849      4155  TIP3      H2            -21.9111355296        8.7812425034      -67.7081662850  TIP3      4091            0.0000000000
     20850      4156  TIP3      OH2            -8.3965240195        9.5650213895      -61.5398341007  TIP3      4092            0.0000000000
     20851      4156  TIP3      H1             -9.3651050172        9.6854600101      -61.4190054763  TIP3      4092            0.0000000000
     20852      4156  TIP3      H2             -8.1283548382       10.4752623839      -61.7648830557  TIP3      4092            0.0000000000
     20853      4157  TIP3      OH2            -8.0439028560       -2.1266264800      -60.1037989646  TIP3      4093            0.0000000000
     20854      4157  TIP3      H1             -8.7791944815       -1.6422252511      -60.4559120005  TIP3      4093            0.0000000000
     20855      4157  TIP3      H2             -7.2779260458       -1.8139042469      -60.6506576345  TIP3      4093            0.0000000000
     20856      4158  TIP3      OH2           -15.1315204748       -4.0243486069      -62.6951686873  TIP3      4094            0.0000000000
     20857      4158  TIP3      H1            -15.2840393724       -4.9859924799      -62.7768133885  TIP3      4094            0.0000000000
     20858      4158  TIP3      H2            -16.0068223673       -3.7217289868      -62.3674969004  TIP3      4094            0.0000000000
     20859      4159  TIP3      OH2           -10.1250918336       11.3430871613      -64.9689586928  TIP3      4095            0.0000000000
     20860      4159  TIP3      H1             -9.7174149196       10.6083107025      -65.4744143356  TIP3      4095            0.0000000000
     20861      4159  TIP3      H2             -9.6276265977       12.1108752441      -65.3243826032  TIP3      4095            0.0000000000
     20862      4160  TIP3      OH2            -8.9074371942        9.2618119869      -66.4273622771  TIP3      4096            0.0000000000
     20863      4160  TIP3      H1             -9.1988972575        8.5902075992      -67.0706585854  TIP3      4096            0.0000000000
     20864      4160  TIP3      H2             -8.8823597484        8.7503761308      -65.6006353594  TIP3      4096            0.0000000000
     20865      4161  TIP3      OH2            -7.3242117355        7.8860955346      -57.9391190094  TIP3      4097            0.0000000000
     20866      4161  TIP3      H1             -7.1593267600        7.2005814782      -58.6261620856  TIP3      4097            0.0000000000
     20867      4161  TIP3      H2             -7.0881057024        8.7045513078      -58.4148487462  TIP3      4097            0.0000000000
     20868      4162  TIP3      OH2           -12.8101985121        4.7559919804      -68.2032158865  TIP3      4098            0.0000000000
     20869      4162  TIP3      H1            -13.4823723876        5.3370134239      -68.6041521233  TIP3      4098            0.0000000000
     20870      4162  TIP3      H2            -12.0804943931        4.8135047670      -68.8591121656  TIP3      4098            0.0000000000
     20871      4163  TIP3      OH2           -12.7259163108        3.2972330245      -71.0809628332  TIP3      4099            0.0000000000
     20872      4163  TIP3      H1            -12.0217995320        3.3182232020      -70.4038796947  TIP3      4099            0.0000000000
     20873      4163  TIP3      H2            -12.2353814812        2.6944175417      -71.6608417487  TIP3      4099            0.0000000000
     20874      4164  TIP3      OH2            -5.4376066268        4.1710581763      -59.9242338442  TIP3      4100            0.0000000000
     20875      4164  TIP3      H1             -6.0587946453        4.9272136644      -59.8833008873  TIP3      4100            0.0000000000
     20876      4164  TIP3      H2             -4.8971513341        4.4354322158      -60.6948728181  TIP3      4100            0.0000000000
     20877      4165  TIP3      OH2            -9.2619464367        4.9766255014      -67.2357063466  TIP3      4101            0.0000000000
     20878      4165  TIP3      H1            -10.0634420997        5.1693029184      -66.6957546676  TIP3      4101            0.0000000000
     20879      4165  TIP3      H2             -8.8430685782        4.2630193342      -66.7232686383  TIP3      4101            0.0000000000
     20880      4166  TIP3      OH2            -9.4186306654        3.1127141663      -58.1644469123  TIP3      4102            0.0000000000
     20881      4166  TIP3      H1             -9.4008442833        3.9237573051      -57.6211866931  TIP3      4102            0.0000000000
     20882      4166  TIP3      H2            -10.0576594271        3.4569167570      -58.8261460349  TIP3      4102            0.0000000000
     20883      4167  TIP3      OH2           -17.7235124147        5.6176238966      -65.3373990667  TIP3      4103            0.0000000000
     20884      4167  TIP3      H1            -18.0435650080        5.2477225761      -66.1983524014  TIP3      4103            0.0000000000
     20885      4167  TIP3      H2            -17.1129484678        4.9193966003      -65.0102185060  TIP3      4103            0.0000000000
     20886      4168  TIP3      OH2           -16.4518512444        8.9778905966      -62.6514056394  TIP3      4104            0.0000000000
     20887      4168  TIP3      H1            -16.4175463254        8.4987172112      -63.4922187579  TIP3      4104            0.0000000000
     20888      4168  TIP3      H2            -15.6436828589        8.6488251173      -62.2109233688  TIP3      4104            0.0000000000
     20889      4169  TIP3      OH2           -17.4228051077        4.3552064850      -61.6482048682  TIP3      4105            0.0000000000
     20890      4169  TIP3      H1            -16.9033716026        4.4408728823      -62.4728818233  TIP3      4105            0.0000000000
     20891      4169  TIP3      H2            -17.0164458259        5.0377918269      -61.0699582261  TIP3      4105            0.0000000000
     20892      4170  TIP3      OH2           -10.9661098353        9.9581694739      -60.9528045677  TIP3      4106            0.0000000000
     20893      4170  TIP3      H1            -11.2544077246       10.5940455854      -60.2853151012  TIP3      4106            0.0000000000
     20894      4170  TIP3      H2            -11.2194648025        9.1015095995      -60.5412938148  TIP3      4106            0.0000000000
     20895      4171  TIP3      OH2           -16.4505208105        8.8071931693      -56.9679109280  TIP3      4107            0.0000000000
     20896      4171  TIP3      H1            -16.9103744730        9.5164487131      -56.4692934272  TIP3      4107            0.0000000000
     20897      4171  TIP3      H2            -17.1022163903        8.5891901603      -57.6785371477  TIP3      4107            0.0000000000
     20898      4172  TIP3      OH2           -10.5329553525        4.3212802154      -69.5530948154  TIP3      4108            0.0000000000
     20899      4172  TIP3      H1             -9.8958301836        4.3568717430      -68.8048855163  TIP3      4108            0.0000000000
     20900      4172  TIP3      H2            -10.0179239408        4.6598246846      -70.3141455366  TIP3      4108            0.0000000000
     20901      4173  TIP3      OH2           -19.5011206040        4.9756257846      -57.8341110129  TIP3      4109            0.0000000000
     20902      4173  TIP3      H1            -19.4325179517        5.6634546155      -57.1457870243  TIP3      4109            0.0000000000
     20903      4173  TIP3      H2            -20.4622169457        5.0329253409      -58.0008249339  TIP3      4109            0.0000000000
     20904      4174  TIP3      OH2           -12.7517930101       10.8927125029      -66.1283971460  TIP3      4110            0.0000000000
     20905      4174  TIP3      H1            -12.3375787814       11.1927013617      -65.3107731694  TIP3      4110            0.0000000000
     20906      4174  TIP3      H2            -13.3060335285       11.6448721467      -66.3651584992  TIP3      4110            0.0000000000
     20907      4175  TIP3      OH2           -18.1891793082       10.8052648901      -56.2202783052  TIP3      4111            0.0000000000
     20908      4175  TIP3      H1            -18.2774245296       10.7368459760      -57.1886957155  TIP3      4111            0.0000000000
     20909      4175  TIP3      H2            -19.1133688641       10.6806218082      -55.9271419902  TIP3      4111            0.0000000000
     20910      4176  TIP3      OH2            -6.7004749606       -4.1297068060      -69.6810644677  TIP3      4112            0.0000000000
     20911      4176  TIP3      H1             -7.6621504960       -4.0709171461      -69.4721215348  TIP3      4112            0.0000000000
     20912      4176  TIP3      H2             -6.5632449392       -3.2366612474      -70.0256200080  TIP3      4112            0.0000000000
     20913      4177  TIP3      OH2           -18.7154711687        4.6450280880      -67.7393951008  TIP3      4113            0.0000000000
     20914      4177  TIP3      H1            -19.0551768297        5.4187803073      -68.2310159864  TIP3      4113            0.0000000000
     20915      4177  TIP3      H2            -19.3772822327        3.9707585594      -67.9177910728  TIP3      4113            0.0000000000
     20916      4178  TIP3      OH2            -5.6259269351       10.3073606959      -71.1803426251  TIP3      4114            0.0000000000
     20917      4178  TIP3      H1             -5.4549658457       11.2572186226      -71.0881076254  TIP3      4114            0.0000000000
     20918      4178  TIP3      H2             -4.7419632891        9.9103587944      -71.3060277195  TIP3      4114            0.0000000000
     20919      4179  TIP3      OH2           -22.6034225028        7.1324733293      -58.8313218862  TIP3      4115            0.0000000000
     20920      4179  TIP3      H1            -22.9724066819        7.0021447830      -59.7120238601  TIP3      4115            0.0000000000
     20921      4179  TIP3      H2            -22.5360086458        6.2048299877      -58.5586748990  TIP3      4115            0.0000000000
     20922      4180  TIP3      OH2           -22.8621274310        9.8462534431      -62.1470061036  TIP3      4116            0.0000000000
     20923      4180  TIP3      H1            -21.9110856885        9.6752173719      -62.0747109489  TIP3      4116            0.0000000000
     20924      4180  TIP3      H2            -23.0110425310       10.5435029403      -61.4941091009  TIP3      4116            0.0000000000
     20925      4181  TIP3      OH2            -4.6786471026       10.5204909630      -56.3369825801  TIP3      4117            0.0000000000
     20926      4181  TIP3      H1             -4.8110267020        9.5620250288      -56.3783772901  TIP3      4117            0.0000000000
     20927      4181  TIP3      H2             -5.5590382095       10.7743839531      -55.9706947299  TIP3      4117            0.0000000000
     20928      4182  TIP3      OH2           -13.7287380772       10.0422887165      -57.4862486131  TIP3      4118            0.0000000000
     20929      4182  TIP3      H1            -13.6806992817       10.8876112595      -56.9776654444  TIP3      4118            0.0000000000
     20930      4182  TIP3      H2            -14.5990832364        9.6738971555      -57.2406076745  TIP3      4118            0.0000000000
     20931      4183  TIP3      OH2           -13.2215065676       13.7870630830      -67.7585570992  TIP3      4119            0.0000000000
     20932      4183  TIP3      H1            -13.4266835882       13.7707350049      -68.7007943681  TIP3      4119            0.0000000000
     20933      4183  TIP3      H2            -13.2737563625       14.7332238974      -67.5127840362  TIP3      4119            0.0000000000
     20934      4184  TIP3      OH2           -19.6325567687       12.6880445349      -65.8540761888  TIP3      4120            0.0000000000
     20935      4184  TIP3      H1            -19.4888149648       12.2561627825      -64.9833518529  TIP3      4120            0.0000000000
     20936      4184  TIP3      H2            -20.4582173794       12.2405303206      -66.1116733080  TIP3      4120            0.0000000000
     20937      4185  TIP3      OH2           -10.3128110393       13.0589291406      -70.7158210014  TIP3      4121            0.0000000000
     20938      4185  TIP3      H1             -9.8047412041       12.3326454585      -71.1867035794  TIP3      4121            0.0000000000
     20939      4185  TIP3      H2            -10.1899130200       12.7364450212      -69.7960473404  TIP3      4121            0.0000000000
     20940      4186  TIP3      OH2           -10.5353766791       12.9769109124      -67.9266859020  TIP3      4122            0.0000000000
     20941      4186  TIP3      H1            -11.4933304718       13.0162490057      -67.7310994440  TIP3      4122            0.0000000000
     20942      4186  TIP3      H2            -10.2953624507       12.2022791386      -67.3916010590  TIP3      4122            0.0000000000
     20943      4187  TIP3      OH2            -7.5288203020        1.9707418686      -55.8944147948  TIP3      4123            0.0000000000
     20944      4187  TIP3      H1             -8.0204356967        2.4289628024      -56.5915928162  TIP3      4123            0.0000000000
     20945      4187  TIP3      H2             -7.5598821993        1.0445062970      -56.1674000536  TIP3      4123            0.0000000000
     20946      4188  TIP3      OH2           -20.3778869511        8.4174586633      -57.8472213786  TIP3      4124            0.0000000000
     20947      4188  TIP3      H1            -20.2294304021        8.0765611607      -56.9431595669  TIP3      4124            0.0000000000
     20948      4188  TIP3      H2            -21.2595759232        8.0288261303      -58.0634426307  TIP3      4124            0.0000000000
     20949      4189  TIP3      OH2           -17.6856466796       -3.0861629739      -61.9735762989  TIP3      4125            0.0000000000
     20950      4189  TIP3      H1            -18.5950339511       -3.2547436640      -62.3106249456  TIP3      4125            0.0000000000
     20951      4189  TIP3      H2            -17.8634625878       -2.2996136616      -61.4334337635  TIP3      4125            0.0000000000
     20952      4190  TIP3      OH2           -13.0413744908       -3.4707709631      -58.5787233983  TIP3      4126            0.0000000000
     20953      4190  TIP3      H1            -12.6713152839       -3.9270977575      -57.7964592182  TIP3      4126            0.0000000000
     20954      4190  TIP3      H2            -14.0185126238       -3.5813308404      -58.4454047116  TIP3      4126            0.0000000000
     20955      4191  TIP3      OH2            -9.7851348757        0.4945622439      -57.5212450524  TIP3      4127            0.0000000000
     20956      4191  TIP3      H1            -10.3623934283        0.1854524458      -56.7704111364  TIP3      4127            0.0000000000
     20957      4191  TIP3      H2             -9.9948276169        1.4429691930      -57.6386022754  TIP3      4127            0.0000000000
     20958      4192  TIP3      OH2            -9.0362956503        5.3986326829      -71.6975452137  TIP3      4128            0.0000000000
     20959      4192  TIP3      H1             -9.0174182942        5.1223354359      -72.6413789297  TIP3      4128            0.0000000000
     20960      4192  TIP3      H2             -8.1416736687        5.7495065000      -71.6088795244  TIP3      4128            0.0000000000
     20961      4193  TIP3      OH2           -13.4393702401       -0.8721420622      -71.2158086943  TIP3      4129            0.0000000000
     20962      4193  TIP3      H1            -13.7535211513       -0.9194138559      -70.2943431643  TIP3      4129            0.0000000000
     20963      4193  TIP3      H2            -13.6890003662       -1.7424490329      -71.5377857122  TIP3      4129            0.0000000000
     20964      4194  TIP3      OH2           -17.5924459814        1.8630453571      -60.6383086595  TIP3      4130            0.0000000000
     20965      4194  TIP3      H1            -18.3214748744        1.8548337556      -59.9930219852  TIP3      4130            0.0000000000
     20966      4194  TIP3      H2            -17.6880711608        2.7518040070      -61.0488494155  TIP3      4130            0.0000000000
     20967      4195  TIP3      OH2           -17.6101308440        1.9218595775      -65.7963949012  TIP3      4131            0.0000000000
     20968      4195  TIP3      H1            -18.5717996728        1.7310294506      -65.9113948800  TIP3      4131            0.0000000000
     20969      4195  TIP3      H2            -17.2977210427        1.6573329154      -66.6859759814  TIP3      4131            0.0000000000
     20970      4196  TIP3      OH2           -12.1319188161        2.4609376487      -67.0506518797  TIP3      4132            0.0000000000
     20971      4196  TIP3      H1            -12.4822158826        3.2904524035      -67.4457918543  TIP3      4132            0.0000000000
     20972      4196  TIP3      H2            -11.4262739592        2.2493124662      -67.7077686528  TIP3      4132            0.0000000000
     20973      4197  TIP3      OH2           -13.0650575983        2.6620480131      -55.6506936382  TIP3      4133            0.0000000000
     20974      4197  TIP3      H1            -13.5785600302        1.8884918485      -55.3231794581  TIP3      4133            0.0000000000
     20975      4197  TIP3      H2            -12.2538503807        2.6064315184      -55.1149025131  TIP3      4133            0.0000000000
     20976      4198  TIP3      OH2           -11.0604305634        1.9451225234      -64.1760060857  TIP3      4134            0.0000000000
     20977      4198  TIP3      H1            -11.3846096357        2.5345478735      -64.8847061213  TIP3      4134            0.0000000000
     20978      4198  TIP3      H2            -10.9974931637        1.1258283048      -64.7065654247  TIP3      4134            0.0000000000
     20979      4199  TIP3      OH2           -20.0529973648        2.0910723985      -59.0017852692  TIP3      4135            0.0000000000
     20980      4199  TIP3      H1            -19.9201753341        2.4631690424      -58.1164798954  TIP3      4135            0.0000000000
     20981      4199  TIP3      H2            -20.3865685304        1.2007126067      -58.7944637678  TIP3      4135            0.0000000000
     20982      4200  TIP3      OH2           -16.7246388515       -0.1171162084      -71.7779262394  TIP3      4136            0.0000000000
     20983      4200  TIP3      H1            -17.0190705425       -0.9486289244      -71.3645326508  TIP3      4136            0.0000000000
     20984      4200  TIP3      H2            -17.1391672108       -0.1921787808      -72.6406937855  TIP3      4136            0.0000000000
     20985      4201  TIP3      OH2           -22.1195612450       -0.7203560448      -65.2613745539  TIP3      4137            0.0000000000
     20986      4201  TIP3      H1            -22.3940934625       -0.9247592655      -64.3567702372  TIP3      4137            0.0000000000
     20987      4201  TIP3      H2            -22.7373128994       -1.2594087317      -65.7784065848  TIP3      4137            0.0000000000
     20988      4202  TIP3      OH2           -22.0682031829        0.0153416791      -69.5620322587  TIP3      4138            0.0000000000
     20989      4202  TIP3      H1            -21.4900357057        0.5004131416      -70.1948279757  TIP3      4138            0.0000000000
     20990      4202  TIP3      H2            -22.7557795180        0.6659393257      -69.4456609108  TIP3      4138            0.0000000000
     20991      4203  TIP3      OH2           -11.8373075780        3.5146471099      -59.6355007441  TIP3      4139            0.0000000000
     20992      4203  TIP3      H1            -11.5307139765        2.8368956059      -60.2663948976  TIP3      4139            0.0000000000
     20993      4203  TIP3      H2            -12.4098823284        3.0250391559      -59.0107718650  TIP3      4139            0.0000000000
     20994      4204  TIP3      OH2           -15.0757922746       -0.4565794376      -64.8035412209  TIP3      4140            0.0000000000
     20995      4204  TIP3      H1            -16.0151400663       -0.4824638861      -64.5400476974  TIP3      4140            0.0000000000
     20996      4204  TIP3      H2            -14.6177412484       -0.6975303467      -63.9834762097  TIP3      4140            0.0000000000
     20997      4205  TIP3      OH2           -20.1420601265        1.1194062275      -66.0191486168  TIP3      4141            0.0000000000
     20998      4205  TIP3      H1            -21.0901863645        1.2090552071      -66.2560197462  TIP3      4141            0.0000000000
     20999      4205  TIP3      H2            -20.0022895966        0.1913992353      -66.2929832501  TIP3      4141            0.0000000000
     21000      4206  TIP3      OH2           -16.6763976643        1.1649250715      -68.2978169480  TIP3      4142            0.0000000000
     21001      4206  TIP3      H1            -15.7126066259        1.2152083287      -68.1696049889  TIP3      4142            0.0000000000
     21002      4206  TIP3      H2            -16.8764415768        1.7856400247      -69.0201286927  TIP3      4142            0.0000000000
     21003      4207  TIP3      OH2           -10.7846774835       -1.3079046082      -61.6584994641  TIP3      4143            0.0000000000
     21004      4207  TIP3      H1            -11.5218364454       -1.3950033851      -61.0234744513  TIP3      4143            0.0000000000
     21005      4207  TIP3      H2            -11.2306030835       -1.6073123201      -62.4705061689  TIP3      4143            0.0000000000
     21006      4208  TIP3      OH2           -18.0293683910        2.4093520370      -70.7546166418  TIP3      4144            0.0000000000
     21007      4208  TIP3      H1            -18.4361766890        1.8823911559      -71.4441563470  TIP3      4144            0.0000000000
     21008      4208  TIP3      H2            -17.1264644928        2.4908482862      -71.1260773525  TIP3      4144            0.0000000000
     21009      4209  TIP3      OH2            -7.5040477187       14.3909397825      -55.2341508148  TIP3      4145            0.0000000000
     21010      4209  TIP3      H1             -7.2314815164       14.7569692392      -56.0969944816  TIP3      4145            0.0000000000
     21011      4209  TIP3      H2             -6.7771310242       14.7037675219      -54.6802173681  TIP3      4145            0.0000000000
     21012      4210  TIP3      OH2           -19.7502227250        6.8009697828      -55.6686786816  TIP3      4146            0.0000000000
     21013      4210  TIP3      H1            -19.0343212587        7.0928345520      -55.0784977306  TIP3      4146            0.0000000000
     21014      4210  TIP3      H2            -20.5277791420        6.9175875979      -55.0668161075  TIP3      4146            0.0000000000
     21015      4211  TIP3      OH2           -13.7853450206        2.2835254602      -62.8868044117  TIP3      4147            0.0000000000
     21016      4211  TIP3      H1            -13.2391985794        1.7448765306      -63.4662093491  TIP3      4147            0.0000000000
     21017      4211  TIP3      H2            -13.9943771765        1.7000610771      -62.1476876092  TIP3      4147            0.0000000000
     21018      4212  TIP3      OH2           -18.8312906071       -1.5982951594      -66.4508976429  TIP3      4148            0.0000000000
     21019      4212  TIP3      H1            -19.1352332461       -2.5205695676      -66.4469710828  TIP3      4148            0.0000000000
     21020      4212  TIP3      H2            -18.0367110144       -1.6716920638      -66.9999351699  TIP3      4148            0.0000000000
     21021      4213  TIP3      OH2           -15.1412592681        0.5894405610      -60.4932270494  TIP3      4149            0.0000000000
     21022      4213  TIP3      H1            -15.9738594976        1.1037035587      -60.4440404910  TIP3      4149            0.0000000000
     21023      4213  TIP3      H2            -14.6211626940        0.9770242406      -59.7721493093  TIP3      4149            0.0000000000
     21024      4214  TIP3      OH2           -14.5868385287        6.8317224559      -68.8056822793  TIP3      4150            0.0000000000
     21025      4214  TIP3      H1            -15.3902411725        6.3497940693      -69.1102100822  TIP3      4150            0.0000000000
     21026      4214  TIP3      H2            -14.8201645162        6.9831468916      -67.8689087832  TIP3      4150            0.0000000000
     21027      4215  TIP3      OH2            -7.3572999589        6.0571887645      -59.9917738681  TIP3      4151            0.0000000000
     21028      4215  TIP3      H1             -6.8269679185        6.5393069076      -60.6548398715  TIP3      4151            0.0000000000
     21029      4215  TIP3      H2             -8.2290679989        6.0391137383      -60.4383649884  TIP3      4151            0.0000000000
     21030      4216  TIP3      OH2           -10.8991436491       -0.5605410777      -70.4005632185  TIP3      4152            0.0000000000
     21031      4216  TIP3      H1            -11.7224815675       -0.3045931513      -70.8493812833  TIP3      4152            0.0000000000
     21032      4216  TIP3      H2            -10.4131810539        0.2991980141      -70.4496914814  TIP3      4152            0.0000000000
     21033      4217  TIP3      OH2           -13.0964097836        7.1227776511      -57.5544686299  TIP3      4153            0.0000000000
     21034      4217  TIP3      H1            -13.4403373742        6.6590353046      -56.7832294092  TIP3      4153            0.0000000000
     21035      4217  TIP3      H2            -13.3877234176        8.0295312210      -57.4119959766  TIP3      4153            0.0000000000
     21036      4218  TIP3      OH2           -10.0331749642        1.7055911947      -68.6738550634  TIP3      4154            0.0000000000
     21037      4218  TIP3      H1             -9.1146896443        1.4201389643      -68.5337961493  TIP3      4154            0.0000000000
     21038      4218  TIP3      H2             -9.9639398544        2.1499500982      -69.5501053035  TIP3      4154            0.0000000000
     21039      4219  TIP3      OH2           -19.4702193951        6.2487946166      -62.9784048236  TIP3      4155            0.0000000000
     21040      4219  TIP3      H1            -18.8516671266        6.1474831166      -63.7224216414  TIP3      4155            0.0000000000
     21041      4219  TIP3      H2            -19.3944238569        5.3892554641      -62.5357045624  TIP3      4155            0.0000000000
     21042      4220  TIP3      OH2           -12.4909858911        8.2493468187      -69.8057943242  TIP3      4156            0.0000000000
     21043      4220  TIP3      H1            -12.8320838276        9.0991200962      -69.4725397071  TIP3      4156            0.0000000000
     21044      4220  TIP3      H2            -13.2226520673        7.6417420391      -69.5674737560  TIP3      4156            0.0000000000
     21045      4221  TIP3      OH2           -22.2267947661        4.6581589765      -57.6745603658  TIP3      4157            0.0000000000
     21046      4221  TIP3      H1            -22.0901021692        4.2255577960      -56.8099564838  TIP3      4157            0.0000000000
     21047      4221  TIP3      H2            -23.0306086470        4.1890082867      -57.9889782077  TIP3      4157            0.0000000000
     21048      4222  TIP3      OH2           -15.4723207609        4.1825238396      -55.5823507048  TIP3      4158            0.0000000000
     21049      4222  TIP3      H1            -15.8127926336        3.8269762873      -56.4187239539  TIP3      4158            0.0000000000
     21050      4222  TIP3      H2            -14.5588590728        3.8337865422      -55.5930089976  TIP3      4158            0.0000000000
     21051      4223  TIP3      OH2           -10.7591399196        9.5289606977      -57.5806141897  TIP3      4159            0.0000000000
     21052      4223  TIP3      H1            -11.6847131291        9.6881650107      -57.8297911021  TIP3      4159            0.0000000000
     21053      4223  TIP3      H2            -10.8125901559        9.8241287852      -56.6502472690  TIP3      4159            0.0000000000
     21054      4224  TIP3      OH2            -5.1285242256        1.6947391152      -69.2064436214  TIP3      4160            0.0000000000
     21055      4224  TIP3      H1             -5.7517495561        1.4368702569      -69.9263487385  TIP3      4160            0.0000000000
     21056      4224  TIP3      H2             -5.0632327817        2.6391827791      -69.4566541052  TIP3      4160            0.0000000000
     21057      4225  TIP3      OH2            -5.1279102478        7.5458140370      -56.4373485938  TIP3      4161            0.0000000000
     21058      4225  TIP3      H1             -6.0263835035        7.7771422102      -56.7846288338  TIP3      4161            0.0000000000
     21059      4225  TIP3      H2             -4.5956629191        7.4882369862      -57.2611084640  TIP3      4161            0.0000000000
     21060      4226  TIP3      OH2            -6.8226434387       10.4852750982      -68.8327839681  TIP3      4162            0.0000000000
     21061      4226  TIP3      H1             -7.2273860199        9.6632664299      -68.5364104714  TIP3      4162            0.0000000000
     21062      4226  TIP3      H2             -6.5328708424       10.2820416114      -69.7503507732  TIP3      4162            0.0000000000
     21063      4227  TIP3      OH2            -9.6157281508        5.3060484491      -61.6784339392  TIP3      4163            0.0000000000
     21064      4227  TIP3      H1            -10.5579601409        5.1547322508      -61.8646085615  TIP3      4163            0.0000000000
     21065      4227  TIP3      H2             -9.1806678116        4.6060917682      -62.2025600624  TIP3      4163            0.0000000000
     21066      4228  TIP3      OH2           -17.0976698393        9.6886546701      -65.5845098482  TIP3      4164            0.0000000000
     21067      4228  TIP3      H1            -16.6047470511       10.4948633102      -65.8075699628  TIP3      4164            0.0000000000
     21068      4228  TIP3      H2            -17.9692136593        9.9021138313      -65.9438404114  TIP3      4164            0.0000000000
     21069      4229  TIP3      OH2           -21.4504300439        4.4793166063      -70.9811735962  TIP3      4165            0.0000000000
     21070      4229  TIP3      H1            -20.7576533246        5.1204804128      -70.7050622590  TIP3      4165            0.0000000000
     21071      4229  TIP3      H2            -22.2443754965        4.9590808143      -70.6953653277  TIP3      4165            0.0000000000
     21072      4230  TIP3      OH2           -15.7147260660        7.3435472497      -66.1193550795  TIP3      4166            0.0000000000
     21073      4230  TIP3      H1            -16.0452314698        8.2563756471      -66.0268922990  TIP3      4166            0.0000000000
     21074      4230  TIP3      H2            -16.4084735340        6.8287692891      -65.6598362265  TIP3      4166            0.0000000000
     21075      4231  TIP3      OH2           -15.2582665036       11.5411985773      -59.6441195152  TIP3      4167            0.0000000000
     21076      4231  TIP3      H1            -14.7630471391       12.3097577946      -59.9671316499  TIP3      4167            0.0000000000
     21077      4231  TIP3      H2            -14.6200726413       11.1666035785      -59.0120265555  TIP3      4167            0.0000000000
     21078      4232  TIP3      OH2           -17.0179784471       12.3062357433      -66.5587664339  TIP3      4168            0.0000000000
     21079      4232  TIP3      H1            -17.9812121435       12.4541969403      -66.4260396359  TIP3      4168            0.0000000000
     21080      4232  TIP3      H2            -16.6423882605       13.1558380114      -66.2517379636  TIP3      4168            0.0000000000
     21081      4233  TIP3      OH2           -11.7659474992        7.4840213958      -60.0826043376  TIP3      4169            0.0000000000
     21082      4233  TIP3      H1            -12.0296262791        7.3145994114      -59.1525545559  TIP3      4169            0.0000000000
     21083      4233  TIP3      H2            -11.0998850064        6.7942700591      -60.2470809077  TIP3      4169            0.0000000000
     21084      4234  TIP3      OH2            -9.4169829752        8.6672822595      -70.8492250051  TIP3      4170            0.0000000000
     21085      4234  TIP3      H1             -9.0891878427        8.0703094295      -70.1495900001  TIP3      4170            0.0000000000
     21086      4234  TIP3      H2            -10.3413324527        8.3924604785      -70.8840859388  TIP3      4170            0.0000000000
     21087      4235  TIP3      OH2            -8.8765193406       12.0927969075      -57.5943529655  TIP3      4171            0.0000000000
     21088      4235  TIP3      H1             -9.5917123089       11.6087260279      -58.0465986187  TIP3      4171            0.0000000000
     21089      4235  TIP3      H2             -8.7127281978       12.7909023155      -58.2640527048  TIP3      4171            0.0000000000
     21090      4236  TIP3      OH2            -4.8725281284       12.9646872790      -70.7108866822  TIP3      4172            0.0000000000
     21091      4236  TIP3      H1             -4.1904904160       13.6293210195      -70.8951982441  TIP3      4172            0.0000000000
     21092      4236  TIP3      H2             -5.6023021265       13.5504469371      -70.4169056144  TIP3      4172            0.0000000000
     21093      4237  TIP3      OH2           -20.8105330062       -0.6651002848      -58.2660052839  TIP3      4173            0.0000000000
     21094      4237  TIP3      H1            -21.6823221442       -0.2540439837      -58.0859308149  TIP3      4173            0.0000000000
     21095      4237  TIP3      H2            -20.9010367672       -1.4827346538      -57.7474293266  TIP3      4173            0.0000000000
     21096      4238  TIP3      OH2            -8.6204739269        7.2149224688      -68.7033795470  TIP3      4174            0.0000000000
     21097      4238  TIP3      H1             -8.8590962219        6.3926321750      -68.2258071182  TIP3      4174            0.0000000000
     21098      4238  TIP3      H2             -7.6665845433        7.2567854693      -68.5390216000  TIP3      4174            0.0000000000
     21099      4239  TIP3      OH2           -21.2390509363       11.0863121679      -59.7183161008  TIP3      4175            0.0000000000
     21100      4239  TIP3      H1            -20.8422055916       10.2033381907      -59.7701173370  TIP3      4175            0.0000000000
     21101      4239  TIP3      H2            -20.8781369704       11.4121600917      -58.8887843845  TIP3      4175            0.0000000000
     21102      4240  TIP3      OH2           -16.4986652825        9.2251605710      -70.0180367273  TIP3      4176            0.0000000000
     21103      4240  TIP3      H1            -16.1833461591        8.6755023310      -69.2932492741  TIP3      4176            0.0000000000
     21104      4240  TIP3      H2            -16.4127856955       10.1395612877      -69.6884418368  TIP3      4176            0.0000000000
     21105      4241  TIP3      OH2           -19.9695575429        6.4392863268      -69.6594740987  TIP3      4177            0.0000000000
     21106      4241  TIP3      H1            -20.6407701498        6.8660346568      -69.0679833818  TIP3      4177            0.0000000000
     21107      4241  TIP3      H2            -19.3711255410        7.1989208655      -69.8079352992  TIP3      4177            0.0000000000
     21108      4242  TIP3      OH2           -12.1004494239       -0.9439665779      -59.1356097657  TIP3      4178            0.0000000000
     21109      4242  TIP3      H1            -11.5632138134       -0.9087021981      -58.3470421065  TIP3      4178            0.0000000000
     21110      4242  TIP3      H2            -12.5736532397       -1.7967824470      -58.9718353588  TIP3      4178            0.0000000000
     21111      4243  TIP3      OH2           -11.4171634728       -1.3241378038      -68.0149576610  TIP3      4179            0.0000000000
     21112      4243  TIP3      H1            -11.1903538549       -0.9147978782      -68.8866498616  TIP3      4179            0.0000000000
     21113      4243  TIP3      H2            -10.7805184711       -0.8698563021      -67.4534990237  TIP3      4179            0.0000000000
     21114      4244  TIP3      OH2           -13.7336624442       10.8392756447      -69.3915667884  TIP3      4180            0.0000000000
     21115      4244  TIP3      H1            -14.5374634001       11.3816975429      -69.2644417686  TIP3      4180            0.0000000000
     21116      4244  TIP3      H2            -13.1479667197       11.4269206744      -69.8730238674  TIP3      4180            0.0000000000
     21117      4245  TIP3      OH2           -14.1226416654        0.4116118840      -67.3335797119  TIP3      4181            0.0000000000
     21118      4245  TIP3      H1            -13.3611434386        1.0292223010      -67.3173875841  TIP3      4181            0.0000000000
     21119      4245  TIP3      H2            -14.3999588233        0.3136407653      -66.4021468932  TIP3      4181            0.0000000000
     21120      4246  TIP3      OH2           -13.4773500463        1.5201844517      -58.1612030862  TIP3      4182            0.0000000000
     21121      4246  TIP3      H1            -13.5450601446        2.0151415754      -57.3173578079  TIP3      4182            0.0000000000
     21122      4246  TIP3      H2            -12.9518545834        0.7408474270      -57.9615298682  TIP3      4182            0.0000000000
     21123      4247  TIP3      OH2           -13.2875382104       -2.5296659668      -66.4365070536  TIP3      4183            0.0000000000
     21124      4247  TIP3      H1            -13.6256287999       -1.8475577698      -65.8398448118  TIP3      4183            0.0000000000
     21125      4247  TIP3      H2            -12.5925479290       -1.9885280916      -66.8975479086  TIP3      4183            0.0000000000
     21126      4248  TIP3      OH2           -16.2649309918       11.9221419571      -69.2917945642  TIP3      4184            0.0000000000
     21127      4248  TIP3      H1            -16.0971818377       12.7374645878      -69.8146762422  TIP3      4184            0.0000000000
     21128      4248  TIP3      H2            -16.5579732399       12.2643165867      -68.4187954464  TIP3      4184            0.0000000000
     21129      4249  TIP3      OH2           -17.6437612469       -1.4383167961      -69.6477575705  TIP3      4185            0.0000000000
     21130      4249  TIP3      H1            -17.6632662654       -0.5087445457      -69.3502297791  TIP3      4185            0.0000000000
     21131      4249  TIP3      H2            -16.7063321649       -1.6540092083      -69.4685190049  TIP3      4185            0.0000000000
     21132      4250  TIP3      OH2            -7.4269486438       -0.6885478767      -57.2667261414  TIP3      4186            0.0000000000
     21133      4250  TIP3      H1             -8.3292626153       -0.3223386720      -57.3577712323  TIP3      4186            0.0000000000
     21134      4250  TIP3      H2             -7.0810171993       -0.7022548445      -58.1757581268  TIP3      4186            0.0000000000
     21135      4251  TIP3      OH2            -8.7888270433        3.1357303904      -63.2039533831  TIP3      4187            0.0000000000
     21136      4251  TIP3      H1             -9.5685902865        2.6671465609      -63.5613783446  TIP3      4187            0.0000000000
     21137      4251  TIP3      H2             -8.2451820347        2.4328104767      -62.7955869224  TIP3      4187            0.0000000000
     21138      4252  TIP3      OH2           -19.3221858159        9.0475578243      -70.6143252936  TIP3      4188            0.0000000000
     21139      4252  TIP3      H1            -18.6619254448        9.6972375280      -70.3471111604  TIP3      4188            0.0000000000
     21140      4252  TIP3      H2            -18.8037496871        8.6039893911      -71.3151613784  TIP3      4188            0.0000000000
     21141      4253  TIP3      OH2           -21.1006121718        1.7662452063      -71.4317116037  TIP3      4189            0.0000000000
     21142      4253  TIP3      H1            -21.1092126732        2.7232763461      -71.2319075770  TIP3      4189            0.0000000000
     21143      4253  TIP3      H2            -21.9521358945        1.6019229645      -71.8397173552  TIP3      4189            0.0000000000
     21144      4254  TIP3      OH2            -7.7103319110       12.3992618415      -61.6223909739  TIP3      4190            0.0000000000
     21145      4254  TIP3      H1             -7.7867169335       13.0727454400      -62.3272412285  TIP3      4190            0.0000000000
     21146      4254  TIP3      H2             -6.7467790933       12.4346910539      -61.4439280923  TIP3      4190            0.0000000000
     21147      4255  TIP3      OH2           -20.1994333005       -3.5381121368      -62.7638676074  TIP3      4191            0.0000000000
     21148      4255  TIP3      H1            -20.3694253099       -3.4772390431      -63.7336385127  TIP3      4191            0.0000000000
     21149      4255  TIP3      H2            -20.6797830141       -4.3692175825      -62.5743218204  TIP3      4191            0.0000000000
     21150      4256  TIP3      OH2           -21.2802794570       10.4730010706      -66.5730513347  TIP3      4192            0.0000000000
     21151      4256  TIP3      H1            -22.1429444720       10.8737107402      -66.7188771069  TIP3      4192            0.0000000000
     21152      4256  TIP3      H2            -20.8380177811       10.8011373565      -67.3656956269  TIP3      4192            0.0000000000
     21153      4257  TIP3      OH2           -22.0300516115       13.0614569679      -55.4341097407  TIP3      4193            0.0000000000
     21154      4257  TIP3      H1            -21.4793455123       12.9474851854      -54.6344624289  TIP3      4193            0.0000000000
     21155      4257  TIP3      H2            -22.4652341077       12.2034579548      -55.4719178213  TIP3      4193            0.0000000000
     21156      4258  TIP3      OH2           -17.3672217489       11.9787305745      -53.7901319942  TIP3      4194            0.0000000000
     21157      4258  TIP3      H1            -16.6163868243       11.4841801496      -53.4452494506  TIP3      4194            0.0000000000
     21158      4258  TIP3      H2            -17.4309652366       11.6701119536      -54.7133740358  TIP3      4194            0.0000000000
     21159      4259  TIP3      OH2           -13.3303203242       11.4732688022      -72.4252039310  TIP3      4195            0.0000000000
     21160      4259  TIP3      H1            -13.9273719968       10.8270325408      -72.0289642731  TIP3      4195            0.0000000000
     21161      4259  TIP3      H2            -12.5304835013       10.9526474748      -72.5743480327  TIP3      4195            0.0000000000
     21162      4260  TIP3      OH2           -10.9199250745       10.3956496318      -54.9902388469  TIP3      4196            0.0000000000
     21163      4260  TIP3      H1            -11.2262150624        9.5057835903      -54.7118107058  TIP3      4196            0.0000000000
     21164      4260  TIP3      H2            -10.1310845591       10.5119848514      -54.4243624386  TIP3      4196            0.0000000000
     21165      4261  TIP3      OH2            -8.6872230490       11.3636809910      -72.0395906616  TIP3      4197            0.0000000000
     21166      4261  TIP3      H1             -8.4504694109       10.4767874792      -71.6719496725  TIP3      4197            0.0000000000
     21167      4261  TIP3      H2             -7.9427531456       11.6459495962      -72.5806639932  TIP3      4197            0.0000000000
     21168      4262  TIP3      OH2           -22.0024837928        6.8763372936      -54.3969825128  TIP3      4198            0.0000000000
     21169      4262  TIP3      H1            -21.9847972746        5.9278415289      -54.6062219316  TIP3      4198            0.0000000000
     21170      4262  TIP3      H2            -22.8803128677        7.1018377379      -54.7718889813  TIP3      4198            0.0000000000
     21171      4263  TIP3      OH2           -17.7047296186        7.0463092490      -71.9926243253  TIP3      4199            0.0000000000
     21172      4263  TIP3      H1            -17.5674148661        6.1622113690      -71.6504139553  TIP3      4199            0.0000000000
     21173      4263  TIP3      H2            -17.1854135570        7.0628806131      -72.8137486391  TIP3      4199            0.0000000000
     21174      4264  TIP3      OH2           -15.4501001040        6.8506139336      -54.9958203820  TIP3      4200            0.0000000000
     21175      4264  TIP3      H1            -15.7815113373        7.1822326137      -55.8527769239  TIP3      4200            0.0000000000
     21176      4264  TIP3      H2            -15.4001209711        5.8677978938      -55.1209596348  TIP3      4200            0.0000000000
     21177      4265  TIP3      OH2            -9.7671487340        6.6923590601      -57.5837535792  TIP3      4201            0.0000000000
     21178      4265  TIP3      H1             -8.9605735560        7.2529747431      -57.6180099701  TIP3      4201            0.0000000000
     21179      4265  TIP3      H2            -10.4452586816        7.3865918445      -57.5680393638  TIP3      4201            0.0000000000
     21180      4266  TIP3      OH2           -21.4344766962        3.9708080378      -54.9780134429  TIP3      4202            0.0000000000
     21181      4266  TIP3      H1            -20.7484988606        3.2888537544      -55.0721104202  TIP3      4202            0.0000000000
     21182      4266  TIP3      H2            -21.3734498284        4.1345433728      -54.0201676679  TIP3      4202            0.0000000000
     21183      4267  TIP3      OH2           -16.5525379980        5.2339760177      -69.8657755766  TIP3      4203            0.0000000000
     21184      4267  TIP3      H1            -17.1442120477        4.6983234124      -69.3134659834  TIP3      4203            0.0000000000
     21185      4267  TIP3      H2            -16.2741483965        4.5800552731      -70.5458418677  TIP3      4203            0.0000000000
     21186      4268  TIP3      OH2           -17.3217947321        3.0209953069      -57.6469970886  TIP3      4204            0.0000000000
     21187      4268  TIP3      H1            -17.9505861319        3.7199009359      -57.3939688405  TIP3      4204            0.0000000000
     21188      4268  TIP3      H2            -16.9240931668        3.4014170643      -58.4490026587  TIP3      4204            0.0000000000
     21189      4269  TIP3      OH2           -15.5826454503        3.3242422605      -71.5807102135  TIP3      4205            0.0000000000
     21190      4269  TIP3      H1            -15.6589976706        3.3459647557      -72.5585627214  TIP3      4205            0.0000000000
     21191      4269  TIP3      H2            -14.6142017218        3.4857028148      -71.5299748515  TIP3      4205            0.0000000000
     21192      4270  TIP3      OH2           -12.2497158392        5.5886347891      -54.3026671409  TIP3      4206            0.0000000000
     21193      4270  TIP3      H1            -11.2980613573        5.5470853279      -54.4530024203  TIP3      4206            0.0000000000
     21194      4270  TIP3      H2            -12.4288160068        4.8321814893      -53.7205476402  TIP3      4206            0.0000000000
     21195      4271  TIP3      OH2            -6.0817564363        5.6384299327       72.7083321337  TIP3      4207            0.0000000000
     21196      4271  TIP3      H1             -6.4667395757        5.3454315853       71.8668137674  TIP3      4207            0.0000000000
     21197      4271  TIP3      H2             -6.1758775448        6.6162519258       72.6416421860  TIP3      4207            0.0000000000
     21198      4272  TIP3      OH2           -16.8618340539        0.4120611022      -56.6076389525  TIP3      4208            0.0000000000
     21199      4272  TIP3      H1            -16.8351133412       -0.2991913086      -57.2738602243  TIP3      4208            0.0000000000
     21200      4272  TIP3      H2            -17.0129196154        1.2135338682      -57.1457694849  TIP3      4208            0.0000000000
     21201      4273  TIP3      OH2           -16.5195471527       -1.2257893248      -59.0312286047  TIP3      4209            0.0000000000
     21202      4273  TIP3      H1            -16.0146667861       -0.7516149316      -59.7373082725  TIP3      4209            0.0000000000
     21203      4273  TIP3      H2            -17.4215944065       -1.2884914574      -59.4240623210  TIP3      4209            0.0000000000
     21204      4274  TIP3      OH2           -14.9959575025        4.3106262821      -58.7891839051  TIP3      4210            0.0000000000
     21205      4274  TIP3      H1            -14.2446424885        4.1385853364      -59.3594831707  TIP3      4210            0.0000000000
     21206      4274  TIP3      H2            -15.3857473808        5.1309902206      -59.1460009649  TIP3      4210            0.0000000000
     21207      4275  TIP3      OH2           -10.6133769568        2.0014588113      -53.8722027634  TIP3      4211            0.0000000000
     21208      4275  TIP3      H1            -10.3546616174        1.0704096809      -53.9259394359  TIP3      4211            0.0000000000
     21209      4275  TIP3      H2             -9.7589759040        2.4615818800      -53.7957732031  TIP3      4211            0.0000000000
     21210      4276  TIP3      OH2            -9.2180170459        4.8400067852      -55.6063993533  TIP3      4212            0.0000000000
     21211      4276  TIP3      H1             -9.5030727482        5.5157337497      -56.2616453692  TIP3      4212            0.0000000000
     21212      4276  TIP3      H2             -8.2628589874        4.7967367432      -55.8178611412  TIP3      4212            0.0000000000
     21213      4277  TIP3      OH2           -18.4994572531        1.6846832058      -54.6994859203  TIP3      4213            0.0000000000
     21214      4277  TIP3      H1            -19.2237755526        1.0383861877      -54.8095563331  TIP3      4213            0.0000000000
     21215      4277  TIP3      H2            -17.8300835377        1.2924469758      -55.2898601736  TIP3      4213            0.0000000000
     21216      4278  TIP3      OH2           -15.7331531650       -3.7937898649      -58.6858288530  TIP3      4214            0.0000000000
     21217      4278  TIP3      H1            -15.9539078496       -2.8355263058      -58.7522738556  TIP3      4214            0.0000000000
     21218      4278  TIP3      H2            -16.4896488653       -4.1814810460      -59.1640934395  TIP3      4214            0.0000000000
     21219      4279  TIP3      OH2           -14.4511840508        0.5423012762      -54.9886344927  TIP3      4215            0.0000000000
     21220      4279  TIP3      H1            -14.8026625051        0.3009067795      -54.1077882955  TIP3      4215            0.0000000000
     21221      4279  TIP3      H2            -15.2203160930        0.3354919777      -55.5523872905  TIP3      4215            0.0000000000
     21222      4280  TIP3      OH2           -11.7527596435       -0.3667609089      -55.9306223861  TIP3      4216            0.0000000000
     21223      4280  TIP3      H1            -12.7084493897       -0.2375222367      -55.7832818661  TIP3      4216            0.0000000000
     21224      4280  TIP3      H2            -11.5120630046       -0.9427271504      -55.1726261903  TIP3      4216            0.0000000000
     21225      4281  TIP3      OH2           -10.1884527824       -1.6941690025      -54.0211150154  TIP3      4217            0.0000000000
     21226      4281  TIP3      H1            -10.2042954940       -2.6741603343      -53.9880584555  TIP3      4217            0.0000000000
     21227      4281  TIP3      H2            -10.3855641776       -1.4101989284      -53.1062146601  TIP3      4217            0.0000000000
     21228      4282  TIP3      OH2           -20.2551626285       -0.3861208244      -54.8496440062  TIP3      4218            0.0000000000
     21229      4282  TIP3      H1            -20.1428006792       -1.1323590927      -55.4642097660  TIP3      4218            0.0000000000
     21230      4282  TIP3      H2            -20.4485020105       -0.8683929293      -54.0197018373  TIP3      4218            0.0000000000
     21231      4283  TIP3      OH2           -15.5029177930       -4.3482491342      -55.9615455551  TIP3      4219            0.0000000000
     21232      4283  TIP3      H1            -14.8623939111       -5.0866158399      -55.9458177037  TIP3      4219            0.0000000000
     21233      4283  TIP3      H2            -15.6392759151       -4.2719565328      -56.9262169295  TIP3      4219            0.0000000000
     21234      4284  TIP3      OH2           -15.1713521202       -2.7838762349      -53.7925192761  TIP3      4220            0.0000000000
     21235      4284  TIP3      H1            -15.3497859556       -3.2966377430      -54.6177195236  TIP3      4220            0.0000000000
     21236      4284  TIP3      H2            -15.7597941376       -2.0102336702      -53.8917569453  TIP3      4220            0.0000000000
     21237      4285  TIP3      OH2           -15.6815018271       14.2279989764      -70.5705887310  TIP3      4221            0.0000000000
     21238      4285  TIP3      H1            -14.7100821784       14.2040409515      -70.5977833312  TIP3      4221            0.0000000000
     21239      4285  TIP3      H2            -15.9012583608       14.6754656095      -71.4051836151  TIP3      4221            0.0000000000
     21240      4286  TIP3      OH2           -22.2081743661        8.7876502417      -71.0589585406  TIP3      4222            0.0000000000
     21241      4286  TIP3      H1            -21.2649109671        8.8711446940      -70.8381718561  TIP3      4222            0.0000000000
     21242      4286  TIP3      H2            -22.2439769474        8.1869909698      -71.8125316191  TIP3      4222            0.0000000000
     21243      4287  TIP3      OH2            23.5933642587       13.8409311767      -66.4627987790  TIP3      4223            0.0000000000
     21244      4287  TIP3      H1             22.6693125530       13.6649115181      -66.6564249502  TIP3      4223            0.0000000000
     21245      4287  TIP3      H2             23.7130831510       13.4404534808      -65.5706441820  TIP3      4223            0.0000000000
     21246      4288  TIP3      OH2           -22.5219989499       12.2467461452      -64.3710322795  TIP3      4224            0.0000000000
     21247      4288  TIP3      H1            -22.8161174758       11.3578120110      -64.1375505977  TIP3      4224            0.0000000000
     21248      4288  TIP3      H2            -22.2536804425       12.6196853585      -63.5049348047  TIP3      4224            0.0000000000
     21249      4289  TIP3      OH2            -4.9908615667       13.0387174796      -61.4244149367  TIP3      4225            0.0000000000
     21250      4289  TIP3      H1             -4.9478927553       13.1698156782      -60.4613510828  TIP3      4225            0.0000000000
     21251      4289  TIP3      H2             -4.2885456381       13.6256421616      -61.7199783751  TIP3      4225            0.0000000000
     21252      4290  TIP3      OH2            -5.4243833694       12.6135731060      -58.4764453658  TIP3      4226            0.0000000000
     21253      4290  TIP3      H1             -5.8995974093       11.8529495237      -58.8629633829  TIP3      4226            0.0000000000
     21254      4290  TIP3      H2             -4.9783710364       12.1711484997      -57.7360679901  TIP3      4226            0.0000000000
     21255      4291  TIP3      OH2            -6.9826554852        8.3323102407      -53.7752250698  TIP3      4227            0.0000000000
     21256      4291  TIP3      H1             -7.8953305377        8.3260841704      -53.4286466970  TIP3      4227            0.0000000000
     21257      4291  TIP3      H2             -6.6177670749        9.1518337746      -53.3931553279  TIP3      4227            0.0000000000
     21258      4292  TIP3      OH2            -5.6293627795        6.6769924081      -68.4266101765  TIP3      4228            0.0000000000
     21259      4292  TIP3      H1             -4.7854133588        7.0936935297      -68.1863524629  TIP3      4228            0.0000000000
     21260      4292  TIP3      H2             -5.7103457526        6.0076233629      -67.7142766686  TIP3      4228            0.0000000000
     21261      4293  TIP3      OH2            -5.3248714874        4.7945799949      -66.4585311532  TIP3      4229            0.0000000000
     21262      4293  TIP3      H1             -6.0832601513        4.2780383012      -66.1041619701  TIP3      4229            0.0000000000
     21263      4293  TIP3      H2             -4.7248358285        4.8684834229      -65.6901765785  TIP3      4229            0.0000000000
     21264      4294  TIP3      OH2            -5.5546476850        7.4307102271      -61.4875317742  TIP3      4230            0.0000000000
     21265      4294  TIP3      H1             -4.7591508200        7.0347186836      -61.8867313170  TIP3      4230            0.0000000000
     21266      4294  TIP3      H2             -5.4019343939        8.3807397879      -61.6573652091  TIP3      4230            0.0000000000
     21267      4295  TIP3      OH2            -6.9908471574       10.3483511883      -59.2245524587  TIP3      4231            0.0000000000
     21268      4295  TIP3      H1             -7.6813734154       10.7037486025      -58.6443089568  TIP3      4231            0.0000000000
     21269      4295  TIP3      H2             -7.5304322700        9.9672819244      -59.9479913229  TIP3      4231            0.0000000000
     21270      4296  TIP3      OH2            -4.9667551683        4.5964197969      -70.0621697777  TIP3      4232            0.0000000000
     21271      4296  TIP3      H1             -5.5911224544        4.8660371380      -70.7726996966  TIP3      4232            0.0000000000
     21272      4296  TIP3      H2             -5.1103637705        5.3327767347      -69.4369631663  TIP3      4232            0.0000000000
     21273      4297  TIP3      OH2            -6.4955148890        1.7300818543      -71.4865610154  TIP3      4233            0.0000000000
     21274      4297  TIP3      H1             -6.6079791886        2.4542363151      -72.1204396610  TIP3      4233            0.0000000000
     21275      4297  TIP3      H2             -6.9775949960        1.0255020957      -71.9698047969  TIP3      4233            0.0000000000
     21276      4298  TIP3      OH2            -7.4884867416        3.2390147865      -65.8659097589  TIP3      4234            0.0000000000
     21277      4298  TIP3      H1             -7.6313416277        2.2833519163      -65.9636447226  TIP3      4234            0.0000000000
     21278      4298  TIP3      H2             -7.7874289564        3.3993146480      -64.9524791880  TIP3      4234            0.0000000000
     21279      4299  TIP3      OH2           -22.5104212883        5.3166294165      -61.7946910501  TIP3      4235            0.0000000000
     21280      4299  TIP3      H1            -22.3771644567        5.2375453896      -62.7659408641  TIP3      4235            0.0000000000
     21281      4299  TIP3      H2            -21.5870270083        5.1662231615      -61.5068078000  TIP3      4235            0.0000000000
     21282      4300  TIP3      OH2            -6.5968407962        5.1786427072      -56.1949426073  TIP3      4236            0.0000000000
     21283      4300  TIP3      H1             -5.9896179749        4.4168159084      -56.0801192858  TIP3      4236            0.0000000000
     21284      4300  TIP3      H2             -5.9951513900        5.9512914982      -56.2041108884  TIP3      4236            0.0000000000
     21285      4301  TIP3      OH2            -5.1171962564        3.0446605279      -55.5570528245  TIP3      4237            0.0000000000
     21286      4301  TIP3      H1             -6.0090377118        2.6585773297      -55.6943840660  TIP3      4237            0.0000000000
     21287      4301  TIP3      H2             -4.5544429018        2.2501125309      -55.6190900966  TIP3      4237            0.0000000000
     21288      4302  TIP3      OH2            -7.4624993527       -0.7511086791      -72.3365182394  TIP3      4238            0.0000000000
     21289      4302  TIP3      H1             -6.8690430456       -1.2337456923      -71.7318025021  TIP3      4238            0.0000000000
     21290      4302  TIP3      H2             -8.3333597841       -1.1386763499      -72.2070965674  TIP3      4238            0.0000000000
     21291      4303  TIP3      OH2            -7.8008351872        0.7913788472      -67.3639407696  TIP3      4239            0.0000000000
     21292      4303  TIP3      H1             -7.5479535917       -0.1560617096      -67.3351834046  TIP3      4239            0.0000000000
     21293      4303  TIP3      H2             -7.0326821219        1.1829748591      -67.7933544774  TIP3      4239            0.0000000000
     21294      4304  TIP3      OH2            -7.1983201270        1.3326123444      -61.9514587790  TIP3      4240            0.0000000000
     21295      4304  TIP3      H1             -6.2364040115        1.5566999264      -62.0414453499  TIP3      4240            0.0000000000
     21296      4304  TIP3      H2             -7.2874576957        1.5613144001      -61.0155411780  TIP3      4240            0.0000000000
     21297      4305  TIP3      OH2            -7.1609605254        2.0514923766      -59.3038736855  TIP3      4241            0.0000000000
     21298      4305  TIP3      H1             -7.9729688496        2.4096044466      -58.8907211596  TIP3      4241            0.0000000000
     21299      4305  TIP3      H2             -6.6479934596        2.8874251353      -59.4656951839  TIP3      4241            0.0000000000
     21300      4306  TIP3      OH2           -22.3732358274        0.3382784495      -56.3633734998  TIP3      4242            0.0000000000
     21301      4306  TIP3      H1            -21.6925331739        0.4921778485      -55.6802410372  TIP3      4242            0.0000000000
     21302      4306  TIP3      H2            -23.0535147624        0.0103336653      -55.7617230601  TIP3      4242            0.0000000000
     21303      4307  TIP3      OH2            -4.8177099330       -3.8354298959      -53.8968086436  TIP3      4243            0.0000000000
     21304      4307  TIP3      H1             -4.4694956253       -4.5089910255      -54.5066713888  TIP3      4243            0.0000000000
     21305      4307  TIP3      H2             -4.7547296566       -3.0388295270      -54.4618655263  TIP3      4243            0.0000000000
     21306      4308  TIP3      OH2            -7.1347518551       -1.9149779020      -67.4291689548  TIP3      4244            0.0000000000
     21307      4308  TIP3      H1             -6.8952199353       -2.3110456018      -66.5583191498  TIP3      4244            0.0000000000
     21308      4308  TIP3      H2             -7.7550026462       -2.5680597757      -67.8136467137  TIP3      4244            0.0000000000
     21309      4309  TIP3      OH2           -21.7213067804       -1.0951643979      -62.6112961792  TIP3      4245            0.0000000000
     21310      4309  TIP3      H1            -21.2219158383       -1.9317999938      -62.5225914889  TIP3      4245            0.0000000000
     21311      4309  TIP3      H2            -21.0585015935       -0.4216329360      -62.4154527908  TIP3      4245            0.0000000000
     21312      4310  TIP3      OH2           -23.3968897278        2.1058937163      -62.0042314557  TIP3      4246            0.0000000000
     21313      4310  TIP3      H1            -22.7340230130        1.6759392426      -62.5642519898  TIP3      4246            0.0000000000
     21314      4310  TIP3      H2            -22.8414222266        2.7834182233      -61.6048982961  TIP3      4246            0.0000000000
     21315      4311  TIP3      OH2            -5.3011717357       -1.7558634170      -55.5393484805  TIP3      4247            0.0000000000
     21316      4311  TIP3      H1             -6.2375556844       -1.4735995337      -55.5611225821  TIP3      4247            0.0000000000
     21317      4311  TIP3      H2             -5.3157919830       -2.3162810769      -56.3316188135  TIP3      4247            0.0000000000
     21318      4312  TIP3      OH2            -5.3099255874       -1.8155249638      -70.9077812347  TIP3      4248            0.0000000000
     21319      4312  TIP3      H1             -4.8742655900       -2.5496816176      -71.3599702524  TIP3      4248            0.0000000000
     21320      4312  TIP3      H2             -4.5644169453       -1.2213167652      -70.7332730084  TIP3      4248            0.0000000000
     21321      4313  TIP3      OH2           -22.6563789392       -2.0156825185      -67.5308465451  TIP3      4249            0.0000000000
     21322      4313  TIP3      H1            -23.5781700134       -1.7570143713      -67.4074288665  TIP3      4249            0.0000000000
     21323      4313  TIP3      H2            -22.3346863791       -1.3840521720      -68.2066638601  TIP3      4249            0.0000000000
     21324      4314  TIP3      OH2            -8.2770548535       13.1070101576      -65.7737372714  TIP3      4250            0.0000000000
     21325      4314  TIP3      H1             -7.5902058734       12.8286653417      -66.4136294423  TIP3      4250            0.0000000000
     21326      4314  TIP3      H2             -7.7748958587       13.6093646077      -65.1105396542  TIP3      4250            0.0000000000
     21327      4315  TIP3      OH2            23.9248371759       -3.1212014954      -59.5353097034  TIP3      4251            0.0000000000
     21328      4315  TIP3      H1             23.2738875143       -3.4305394409      -58.8766311555  TIP3      4251            0.0000000000
     21329      4315  TIP3      H2             23.3892389718       -2.4860115556      -60.0323249073  TIP3      4251            0.0000000000
     21330      4316  TIP3      OH2           -20.8342776848        9.9881265245      -55.2150415811  TIP3      4252            0.0000000000
     21331      4316  TIP3      H1            -21.6681976605       10.1482994641      -55.6647032940  TIP3      4252            0.0000000000
     21332      4316  TIP3      H2            -21.0901741221        9.8656808526      -54.2944853650  TIP3      4252            0.0000000000
     21333      4317  TIP3      OH2           -17.9557624294       11.0318564633      -59.0102398429  TIP3      4253            0.0000000000
     21334      4317  TIP3      H1            -18.2376294424       11.9353257134      -59.2402668457  TIP3      4253            0.0000000000
     21335      4317  TIP3      H2            -17.0164375222       11.0955067833      -59.2875981679  TIP3      4253            0.0000000000
     21336      4318  TIP3      OH2           -13.6079154796       12.4460513004      -56.1107565678  TIP3      4254            0.0000000000
     21337      4318  TIP3      H1            -13.4916618152       12.0948827655      -55.2006299048  TIP3      4254            0.0000000000
     21338      4318  TIP3      H2            -12.7003712626       12.7671572771      -56.3272507406  TIP3      4254            0.0000000000
     21339      4319  TIP3      OH2           -11.3248705836       13.7177325144      -56.7734319889  TIP3      4255            0.0000000000
     21340      4319  TIP3      H1            -10.5781193925       13.1574582849      -57.0179116126  TIP3      4255            0.0000000000
     21341      4319  TIP3      H2            -10.9602658213       14.1717750391      -55.9832137962  TIP3      4255            0.0000000000
     21342      4320  TIP3      OH2            -6.2986818117       -3.6589882356      -57.6661325508  TIP3      4256            0.0000000000
     21343      4320  TIP3      H1             -7.1306233819       -3.3797493761      -58.0728685534  TIP3      4256            0.0000000000
     21344      4320  TIP3      H2             -6.1350843699       -4.5033214041      -58.1491226327  TIP3      4256            0.0000000000
     21345      4321  TIP3      OH2           -20.6081147627       14.1863344364      -59.0310989466  TIP3      4257            0.0000000000
     21346      4321  TIP3      H1            -21.2775961535       14.7945557437      -59.4201851244  TIP3      4257            0.0000000000
     21347      4321  TIP3      H2            -20.8645271619       14.1714360572      -58.1004228541  TIP3      4257            0.0000000000
     21348      4322  TIP3      OH2           -18.0342958053       13.8619460480      -59.9107839362  TIP3      4258            0.0000000000
     21349      4322  TIP3      H1            -18.9330001282       14.0203985378      -59.5473069552  TIP3      4258            0.0000000000
     21350      4322  TIP3      H2            -18.0716790207       14.4261805187      -60.7022768077  TIP3      4258            0.0000000000
     21351      4323  TIP3      OH2           -13.3249988866       13.7401783053      -60.7807084198  TIP3      4259            0.0000000000
     21352      4323  TIP3      H1            -13.7944984008       14.3046171985      -61.4138850269  TIP3      4259            0.0000000000
     21353      4323  TIP3      H2            -13.1968975012       14.3630592880      -60.0268487092  TIP3      4259            0.0000000000
     21354      4324  TIP3      OH2           -11.0728492644       12.5063767988      -59.6784342784  TIP3      4260            0.0000000000
     21355      4324  TIP3      H1            -11.8841923172       12.8274459256      -60.1085208353  TIP3      4260            0.0000000000
     21356      4324  TIP3      H2            -10.5309157132       13.3070662325      -59.7788267186  TIP3      4260            0.0000000000
     21357      4325  TIP3      OH2            -8.4969645744       14.0740930547      -59.5366285384  TIP3      4261            0.0000000000
     21358      4325  TIP3      H1             -8.4788031606       15.0402611077      -59.7466678006  TIP3      4261            0.0000000000
     21359      4325  TIP3      H2             -8.2454136942       13.7038341911      -60.4078452001  TIP3      4261            0.0000000000
     21360      4326  TIP3      OH2           -21.0334145016       12.8801946051      -62.1184155083  TIP3      4262            0.0000000000
     21361      4326  TIP3      H1            -21.0705597597       12.4660144751      -61.2377259759  TIP3      4262            0.0000000000
     21362      4326  TIP3      H2            -20.2086480524       12.5164684019      -62.4888762426  TIP3      4262            0.0000000000
     21363      4327  TIP3      OH2           -18.9770159234       11.5992809295      -63.4168752248  TIP3      4263            0.0000000000
     21364      4327  TIP3      H1            -19.1087955878       10.6670272307      -63.1602582632  TIP3      4263            0.0000000000
     21365      4327  TIP3      H2            -18.1265201554       11.7907106482      -62.9723696323  TIP3      4263            0.0000000000
     21366      4328  TIP3      OH2           -16.3380699610       12.0930394641      -62.5132568720  TIP3      4264            0.0000000000
     21367      4328  TIP3      H1            -16.2045067423       11.1659115076      -62.7704665622  TIP3      4264            0.0000000000
     21368      4328  TIP3      H2            -16.3023889147       12.0432977955      -61.5453053634  TIP3      4264            0.0000000000
     21369      4329  TIP3      OH2           -12.8727274158       -2.2615349376      -63.3613582064  TIP3      4265            0.0000000000
     21370      4329  TIP3      H1            -13.5940296378       -2.8690515680      -63.1125701933  TIP3      4265            0.0000000000
     21371      4329  TIP3      H2            -12.3859444392       -2.8018355725      -63.9946434489  TIP3      4265            0.0000000000
     21372      4330  TIP3      OH2            -7.7634861893       -4.1759502659      -63.3119445972  TIP3      4266            0.0000000000
     21373      4330  TIP3      H1             -7.1676853711       -3.6113504200      -63.8658662601  TIP3      4266            0.0000000000
     21374      4330  TIP3      H2             -8.6626306707       -3.8795326685      -63.5838517164  TIP3      4266            0.0000000000
     21375      4331  TIP3      OH2            -6.1260213772       -2.9308779444      -65.0924613208  TIP3      4267            0.0000000000
     21376      4331  TIP3      H1             -5.4350435172       -3.5309170207      -65.4671441862  TIP3      4267            0.0000000000
     21377      4331  TIP3      H2             -5.5807125746       -2.1206034232      -64.9455791888  TIP3      4267            0.0000000000
     21378      4332  TIP3      OH2           -20.5266791133       -3.6791734689      -65.4866045676  TIP3      4268            0.0000000000
     21379      4332  TIP3      H1            -21.2966863293       -3.7962148495      -66.0712061218  TIP3      4268            0.0000000000
     21380      4332  TIP3      H2            -20.0547092565       -4.5300497963      -65.6158756921  TIP3      4268            0.0000000000
     21381      4333  TIP3      OH2           -21.7627436049       -3.9158269992      -69.9475754103  TIP3      4269            0.0000000000
     21382      4333  TIP3      H1            -21.2681596494       -3.2050212184      -70.3945742322  TIP3      4269            0.0000000000
     21383      4333  TIP3      H2            -22.2649268195       -3.3934622215      -69.3058723300  TIP3      4269            0.0000000000
     21384      4334  TIP3      OH2           -16.0973804571       -3.7027823887      -65.7505101367  TIP3      4270            0.0000000000
     21385      4334  TIP3      H1            -15.1951902999       -3.3632262423      -65.8661284988  TIP3      4270            0.0000000000
     21386      4334  TIP3      H2            -16.1030317766       -3.9280055438      -64.8212815758  TIP3      4270            0.0000000000
     21387      4335  TIP3      OH2           -10.3158099476       -3.6776778919      -64.1263091512  TIP3      4271            0.0000000000
     21388      4335  TIP3      H1            -10.4070091115       -3.5448438791      -65.0773225512  TIP3      4271            0.0000000000
     21389      4335  TIP3      H2            -10.7247067206       -4.5701438264      -64.0057622980  TIP3      4271            0.0000000000
     21390      4336  TIP3      OH2            -9.0827167475       -3.6508391071      -68.4943072292  TIP3      4272            0.0000000000
     21391      4336  TIP3      H1             -9.8404805558       -3.0608362779      -68.6391062018  TIP3      4272            0.0000000000
     21392      4336  TIP3      H2             -9.4989008597       -4.4888916106      -68.1935838046  TIP3      4272            0.0000000000
     21393      4337  TIP3      OH2           -21.8030623869       12.1044038438      -68.7961742762  TIP3      4273            0.0000000000
     21394      4337  TIP3      H1            -22.4992425612       12.0668465853      -69.4682158584  TIP3      4273            0.0000000000
     21395      4337  TIP3      H2            -21.8041642816       13.0563142001      -68.6282558878  TIP3      4273            0.0000000000
     21396      4338  TIP3      OH2           -19.9144803349       -2.1041265604      -71.2474734977  TIP3      4274            0.0000000000
     21397      4338  TIP3      H1            -19.3287931283       -2.5706246042      -71.8501193822  TIP3      4274            0.0000000000
     21398      4338  TIP3      H2            -19.2594074318       -1.6912169855      -70.6469401699  TIP3      4274            0.0000000000
     21399      4339  TIP3      OH2           -14.9230571294       -1.7250777051      -68.8949942623  TIP3      4275            0.0000000000
     21400      4339  TIP3      H1            -14.6511356838       -2.2716000047      -68.1424624469  TIP3      4275            0.0000000000
     21401      4339  TIP3      H2            -14.8316135936       -0.8382252995      -68.4822506830  TIP3      4275            0.0000000000
     21402      4340  TIP3      OH2           -13.0107398183       13.5109322373      -70.6115848413  TIP3      4276            0.0000000000
     21403      4340  TIP3      H1            -12.0354614050       13.4733540263      -70.6024257840  TIP3      4276            0.0000000000
     21404      4340  TIP3      H2            -13.1974112172       12.8261872985      -71.2892443822  TIP3      4276            0.0000000000
     21405      4341  TIP3      OH2            -6.3502113882       12.8957887843      -67.7410175778  TIP3      4277            0.0000000000
     21406      4341  TIP3      H1             -6.4880501527       12.0876006290      -68.2931926027  TIP3      4277            0.0000000000
     21407      4341  TIP3      H2             -6.3640109739       13.6002332297      -68.4088125770  TIP3      4277            0.0000000000
     21408      4342  TIP3      OH2           -20.6950732979       -3.0663988872      -56.0369078137  TIP3      4278            0.0000000000
     21409      4342  TIP3      H1            -21.0930556267       -3.8725242169      -55.6673694580  TIP3      4278            0.0000000000
     21410      4342  TIP3      H2            -19.7736414134       -3.1520091249      -55.6946826156  TIP3      4278            0.0000000000
     21411      4343  TIP3      OH2           -18.6524892803       -3.6959823081      -54.4186987721  TIP3      4279            0.0000000000
     21412      4343  TIP3      H1            -17.7713558292       -4.0535614636      -54.6347144631  TIP3      4279            0.0000000000
     21413      4343  TIP3      H2            -19.0659900342       -4.4916913238      -54.0381474091  TIP3      4279            0.0000000000
     21414      4344  TIP3      OH2           -20.1292245925       12.9316682618      -71.7251780281  TIP3      4280            0.0000000000
     21415      4344  TIP3      H1            -20.3221576353       13.3326791638      -70.8652066511  TIP3      4280            0.0000000000
     21416      4344  TIP3      H2            -19.2763916615       12.5019747244      -71.5991800606  TIP3      4280            0.0000000000
     21417      4345  TIP3      OH2           -10.2594340687       -4.4235498680      -54.2800680157  TIP3      4281            0.0000000000
     21418      4345  TIP3      H1            -10.1741654414       -4.9006063859      -53.4295216161  TIP3      4281            0.0000000000
     21419      4345  TIP3      H2             -9.3421210092       -4.4678608227      -54.6234378702  TIP3      4281            0.0000000000
     21420      4346  TIP3      OH2            -7.0424678877       11.6476235981      -55.6834244787  TIP3      4282            0.0000000000
     21421      4346  TIP3      H1             -7.8385339380       11.5224227267      -56.2446355643  TIP3      4282            0.0000000000
     21422      4346  TIP3      H2             -7.1646106047       12.5913936644      -55.4602023672  TIP3      4282            0.0000000000
     21423      4347  TIP3      OH2             7.4250532871        5.5285460558      -65.7128662672  TIP3      4283            0.0000000000
     21424      4347  TIP3      H1              7.3736485628        6.5107269406      -65.7167779269  TIP3      4283            0.0000000000
     21425      4347  TIP3      H2              6.6779910611        5.2934568252      -66.2840132339  TIP3      4283            0.0000000000
     21426      4348  TIP3      OH2             6.2733860794        4.7478477921      -62.2094374832  TIP3      4284            0.0000000000
     21427      4348  TIP3      H1              6.2536921501        4.1293313565      -61.4640941370  TIP3      4284            0.0000000000
     21428      4348  TIP3      H2              5.8501958196        4.2367158629      -62.9197476442  TIP3      4284            0.0000000000
     21429      4349  TIP3      OH2            -1.4099041413        4.4491682791      -60.6358979244  TIP3      4285            0.0000000000
     21430      4349  TIP3      H1             -1.3188222214        3.7500095184      -59.9589927267  TIP3      4285            0.0000000000
     21431      4349  TIP3      H2             -0.6502486405        5.0103659241      -60.4104043303  TIP3      4285            0.0000000000
     21432      4350  TIP3      OH2             9.9103185087        7.7150425731      -63.8900741356  TIP3      4286            0.0000000000
     21433      4350  TIP3      H1              9.5260506620        6.9915904443      -63.3878268145  TIP3      4286            0.0000000000
     21434      4350  TIP3      H2              9.9707853587        8.4122645259      -63.2137240306  TIP3      4286            0.0000000000
     21435      4351  TIP3      OH2            -0.4760806108        8.9159578774      -62.1885288625  TIP3      4287            0.0000000000
     21436      4351  TIP3      H1             -0.7697434509        8.0221699481      -62.4586435736  TIP3      4287            0.0000000000
     21437      4351  TIP3      H2              0.4810479569        8.7436836904      -62.1311986400  TIP3      4287            0.0000000000
     21438      4352  TIP3      OH2            -3.8484360269        2.4291787319      -66.6240376559  TIP3      4288            0.0000000000
     21439      4352  TIP3      H1             -4.2655871768        3.3060904838      -66.7009599777  TIP3      4288            0.0000000000
     21440      4352  TIP3      H2             -4.3993665458        1.8938562951      -67.2078739350  TIP3      4288            0.0000000000
     21441      4353  TIP3      OH2            -3.1096965497        4.6789882454      -64.4599670662  TIP3      4289            0.0000000000
     21442      4353  TIP3      H1             -2.8139436770        3.8379287676      -64.0517120635  TIP3      4289            0.0000000000
     21443      4353  TIP3      H2             -2.4579796179        4.8028029391      -65.1646653821  TIP3      4289            0.0000000000
     21444      4354  TIP3      OH2             7.0564766762       12.8923956602      -63.6601489821  TIP3      4290            0.0000000000
     21445      4354  TIP3      H1              7.7099993777       12.2171768014      -63.9609149997  TIP3      4290            0.0000000000
     21446      4354  TIP3      H2              6.8128180303       12.5076640361      -62.8133626663  TIP3      4290            0.0000000000
     21447      4355  TIP3      OH2             4.6302621294        7.1512917062      -61.6749013033  TIP3      4291            0.0000000000
     21448      4355  TIP3      H1              4.9543651668        6.5446658964      -62.3592250730  TIP3      4291            0.0000000000
     21449      4355  TIP3      H2              5.4633469249        7.3236297654      -61.1961648610  TIP3      4291            0.0000000000
     21450      4356  TIP3      OH2            13.2202753013       -1.1302232984      -61.0407533371  TIP3      4292            0.0000000000
     21451      4356  TIP3      H1             13.3872937747       -0.6155675509      -60.2195013376  TIP3      4292            0.0000000000
     21452      4356  TIP3      H2             13.9026612484       -0.7188730957      -61.5993539032  TIP3      4292            0.0000000000
     21453      4357  TIP3      OH2             7.8470469846        1.6258924656      -61.3807277180  TIP3      4293            0.0000000000
     21454      4357  TIP3      H1              7.9569629596        0.6632577761      -61.3616480116  TIP3      4293            0.0000000000
     21455      4357  TIP3      H2              7.6835125762        1.7680373513      -62.3330994919  TIP3      4293            0.0000000000
     21456      4358  TIP3      OH2             0.8861083044       -0.2730228588      -64.1979648442  TIP3      4294            0.0000000000
     21457      4358  TIP3      H1              1.0311506858        0.5421163459      -64.7144808470  TIP3      4294            0.0000000000
     21458      4358  TIP3      H2              0.5351561400       -0.8750449087      -64.8934741810  TIP3      4294            0.0000000000
     21459      4359  TIP3      OH2             8.6404138461       -0.2400217512      -65.8890403880  TIP3      4295            0.0000000000
     21460      4359  TIP3      H1              9.2274774372       -0.4412937328      -65.1341385756  TIP3      4295            0.0000000000
     21461      4359  TIP3      H2              9.1770740043        0.4175705038      -66.3587294190  TIP3      4295            0.0000000000
     21462      4360  TIP3      OH2            -2.4838616449        2.1558136308      -63.4528030525  TIP3      4296            0.0000000000
     21463      4360  TIP3      H1             -1.8223641914        1.6213505965      -62.9789735081  TIP3      4296            0.0000000000
     21464      4360  TIP3      H2             -2.3381345887        1.8328276880      -64.3570841467  TIP3      4296            0.0000000000
     21465      4361  TIP3      OH2             2.6635156903        3.6905508798      -64.0824725627  TIP3      4297            0.0000000000
     21466      4361  TIP3      H1              3.3686985810        3.1110051833      -63.7453297113  TIP3      4297            0.0000000000
     21467      4361  TIP3      H2              2.1785706614        3.0535721020      -64.6427551740  TIP3      4297            0.0000000000
     21468      4362  TIP3      OH2            13.6165274841        0.2071191586      -58.7422740998  TIP3      4298            0.0000000000
     21469      4362  TIP3      H1             13.0895530499        1.0311490240      -58.8474825393  TIP3      4298            0.0000000000
     21470      4362  TIP3      H2             13.6971195674        0.1811558359      -57.7770019943  TIP3      4298            0.0000000000
     21471      4363  TIP3      OH2            -0.1512292961       -1.3658940732      -60.1444928768  TIP3      4299            0.0000000000
     21472      4363  TIP3      H1             -0.4443534835       -0.8035731746      -60.8977523926  TIP3      4299            0.0000000000
     21473      4363  TIP3      H2             -0.8304307442       -1.1454059930      -59.4652572089  TIP3      4299            0.0000000000
     21474      4364  TIP3      OH2             7.0710836677        8.0856064652      -66.5976440559  TIP3      4300            0.0000000000
     21475      4364  TIP3      H1              6.8453546975        7.8317937646      -67.5096858040  TIP3      4300            0.0000000000
     21476      4364  TIP3      H2              6.7917356487        9.0225454934      -66.5556108421  TIP3      4300            0.0000000000
     21477      4365  TIP3      OH2             2.3217776839        6.2665750136      -59.9380394610  TIP3      4301            0.0000000000
     21478      4365  TIP3      H1              1.6368493658        6.9154964838      -59.6723956939  TIP3      4301            0.0000000000
     21479      4365  TIP3      H2              3.0344253443        6.8585915856      -60.2317670195  TIP3      4301            0.0000000000
     21480      4366  TIP3      OH2            10.2315845554       -0.4475553713      -63.7604042445  TIP3      4302            0.0000000000
     21481      4366  TIP3      H1              9.8378304170       -1.1916986205      -63.2712978275  TIP3      4302            0.0000000000
     21482      4366  TIP3      H2             10.8975367621       -0.0006066590      -63.1996344266  TIP3      4302            0.0000000000
     21483      4367  TIP3      OH2            -0.5688449219        0.4619193966      -62.0915601970  TIP3      4303            0.0000000000
     21484      4367  TIP3      H1              0.0355674371        1.1759392214      -61.7892957209  TIP3      4303            0.0000000000
     21485      4367  TIP3      H2             -0.0690735950        0.0937075467      -62.8673291932  TIP3      4303            0.0000000000
     21486      4368  TIP3      OH2             0.7941983030        8.2916125091      -59.1011984434  TIP3      4304            0.0000000000
     21487      4368  TIP3      H1              0.7306498462        9.2077944148      -59.4270220307  TIP3      4304            0.0000000000
     21488      4368  TIP3      H2             -0.0879001592        8.1956030572      -58.6602643509  TIP3      4304            0.0000000000
     21489      4369  TIP3      OH2            -3.1568832873        7.8500420036      -68.2584282450  TIP3      4305            0.0000000000
     21490      4369  TIP3      H1             -3.3858805056        8.2010481711      -69.1405794734  TIP3      4305            0.0000000000
     21491      4369  TIP3      H2             -3.0546361796        8.6745588550      -67.7459431146  TIP3      4305            0.0000000000
     21492      4370  TIP3      OH2            10.4587554026        9.5641942698      -61.5388489217  TIP3      4306            0.0000000000
     21493      4370  TIP3      H1              9.4900483258        9.6858751656      -61.4197773514  TIP3      4306            0.0000000000
     21494      4370  TIP3      H2             10.7278390914       10.4735863817      -61.7656282764  TIP3      4306            0.0000000000
     21495      4371  TIP3      OH2            10.7487376515       -2.1517257824      -60.3200624476  TIP3      4307            0.0000000000
     21496      4371  TIP3      H1             10.0468850936       -1.4942560210      -60.2033952582  TIP3      4307            0.0000000000
     21497      4371  TIP3      H2             11.5428796688       -1.6185039572      -60.5055463344  TIP3      4307            0.0000000000
     21498      4372  TIP3      OH2             3.7347919343       -4.0438703498      -62.6539705646  TIP3      4308            0.0000000000
     21499      4372  TIP3      H1              3.5607844213       -4.9906452142      -62.8381851067  TIP3      4308            0.0000000000
     21500      4372  TIP3      H2              2.8331768999       -3.7530116801      -62.3953574309  TIP3      4308            0.0000000000
     21501      4373  TIP3      OH2             8.7329824037       11.3439204834      -64.9590905283  TIP3      4309            0.0000000000
     21502      4373  TIP3      H1              9.1362129959       10.6134094805      -65.4728911533  TIP3      4309            0.0000000000
     21503      4373  TIP3      H2              9.2257659956       12.1116733546      -65.3212647826  TIP3      4309            0.0000000000
     21504      4374  TIP3      OH2             9.9504839957        9.2655667626      -66.4368208047  TIP3      4310            0.0000000000
     21505      4374  TIP3      H1              9.6559070625        8.5908295291      -67.0749530836  TIP3      4310            0.0000000000
     21506      4374  TIP3      H2              9.9737847220        8.7584132990      -65.6080298966  TIP3      4310            0.0000000000
     21507      4375  TIP3      OH2            11.5317154391        7.8850729979      -57.9397768770  TIP3      4311            0.0000000000
     21508      4375  TIP3      H1             11.7007039078        7.1985057668      -58.6244399757  TIP3      4311            0.0000000000
     21509      4375  TIP3      H2             11.7698014763        8.7034479363      -58.4146081296  TIP3      4311            0.0000000000
     21510      4376  TIP3      OH2             6.0436178489        4.7374111304      -68.2093136252  TIP3      4312            0.0000000000
     21511      4376  TIP3      H1              5.3623050484        5.3472835012      -68.5551777551  TIP3      4312            0.0000000000
     21512      4376  TIP3      H2              6.7589773563        4.8408856613      -68.8614035770  TIP3      4312            0.0000000000
     21513      4377  TIP3      OH2             6.1800000567        3.3109919500      -71.0920268446  TIP3      4313            0.0000000000
     21514      4377  TIP3      H1              6.8354421542        3.3131702046      -70.3766189297  TIP3      4313            0.0000000000
     21515      4377  TIP3      H2              6.5790311549        2.6752357777      -71.6857391476  TIP3      4313            0.0000000000
     21516      4378  TIP3      OH2            13.4365601181        4.1821347356      -59.9343245800  TIP3      4314            0.0000000000
     21517      4378  TIP3      H1             12.8111596119        4.9325205599      -59.8839587878  TIP3      4314            0.0000000000
     21518      4378  TIP3      H2             13.9758280726        4.4457296133      -60.7022842924  TIP3      4314            0.0000000000
     21519      4379  TIP3      OH2             9.5262979879        4.9397279060      -67.2489208766  TIP3      4315            0.0000000000
     21520      4379  TIP3      H1              8.7914192475        5.2043907157      -66.6476977285  TIP3      4315            0.0000000000
     21521      4379  TIP3      H2             10.0173171463        4.3025561863      -66.6967335654  TIP3      4315            0.0000000000
     21522      4380  TIP3      OH2             9.4482585799        3.1288226812      -58.1211035543  TIP3      4316            0.0000000000
     21523      4380  TIP3      H1              9.4421472674        3.9462622035      -57.5977456000  TIP3      4316            0.0000000000
     21524      4380  TIP3      H2              8.8202923478        3.4133678290      -58.8152563385  TIP3      4316            0.0000000000
     21525      4381  TIP3      OH2             1.1095223314        5.6100765986      -65.3418809336  TIP3      4317            0.0000000000
     21526      4381  TIP3      H1              0.8090445787        5.2422367573      -66.2071404030  TIP3      4317            0.0000000000
     21527      4381  TIP3      H2              1.7319965933        4.9244313367      -65.0109807176  TIP3      4317            0.0000000000
     21528      4382  TIP3      OH2             2.4242197707        8.9708437079      -62.6599720492  TIP3      4318            0.0000000000
     21529      4382  TIP3      H1              2.4443000937        8.4884494839      -63.4967710878  TIP3      4318            0.0000000000
     21530      4382  TIP3      H2              3.2228672134        8.6369739033      -62.2107292328  TIP3      4318            0.0000000000
     21531      4383  TIP3      OH2             1.4268175929        4.3598602817      -61.6501775632  TIP3      4319            0.0000000000
     21532      4383  TIP3      H1              1.9549388602        4.4348812977      -62.4719895838  TIP3      4319            0.0000000000
     21533      4383  TIP3      H2              1.8500325305        5.0324703649      -61.0684999912  TIP3      4319            0.0000000000
     21534      4384  TIP3      OH2             7.8889184986        9.9572847771      -60.9531336302  TIP3      4320            0.0000000000
     21535      4384  TIP3      H1              7.6018152742       10.5928677525      -60.2851436429  TIP3      4320            0.0000000000
     21536      4384  TIP3      H2              7.6358659249        9.1006865426      -60.5409341012  TIP3      4320            0.0000000000
     21537      4385  TIP3      OH2             2.4042908139        8.8060679161      -56.9702030995  TIP3      4321            0.0000000000
     21538      4385  TIP3      H1              1.9469856988        9.5165662404      -56.4714170971  TIP3      4321            0.0000000000
     21539      4385  TIP3      H2              1.7502421449        8.5887981734      -57.6789638691  TIP3      4321            0.0000000000
     21540      4386  TIP3      OH2             8.3802027164        4.1747711448      -69.6093140792  TIP3      4322            0.0000000000
     21541      4386  TIP3      H1              8.9143354919        4.3876286693      -68.8033217091  TIP3      4322            0.0000000000
     21542      4386  TIP3      H2              8.7930631893        4.7266644772      -70.3015681160  TIP3      4322            0.0000000000
     21543      4387  TIP3      OH2            -0.6350206811        4.9593292923      -57.8677795831  TIP3      4323            0.0000000000
     21544      4387  TIP3      H1             -0.5670704394        5.6152256879      -57.1507978284  TIP3      4323            0.0000000000
     21545      4387  TIP3      H2             -1.5916835373        5.0131583423      -58.0208715400  TIP3      4323            0.0000000000
     21546      4388  TIP3      OH2             6.1061914361       10.8939083194      -66.1301362686  TIP3      4324            0.0000000000
     21547      4388  TIP3      H1              6.5162049347       11.1934764611      -65.3100337821  TIP3      4324            0.0000000000
     21548      4388  TIP3      H2              5.5528054119       11.6463348889      -66.3706154094  TIP3      4324            0.0000000000
     21549      4389  TIP3      OH2             0.6627635553       10.8134465065      -56.2398068064  TIP3      4325            0.0000000000
     21550      4389  TIP3      H1              0.5702530829       10.7437687773      -57.2081554314  TIP3      4325            0.0000000000
     21551      4389  TIP3      H2             -0.2582974146       10.6691882790      -55.9489705001  TIP3      4325            0.0000000000
     21552      4390  TIP3      OH2            12.1700440513       -4.0843088359      -69.5629941196  TIP3      4326            0.0000000000
     21553      4390  TIP3      H1             11.1919006088       -4.0775287922      -69.4887698474  TIP3      4326            0.0000000000
     21554      4390  TIP3      H2             12.2710624615       -3.2929367494      -70.1093532650  TIP3      4326            0.0000000000
     21555      4391  TIP3      OH2             0.0652476716        4.6233240408      -67.7460084746  TIP3      4327            0.0000000000
     21556      4391  TIP3      H1             -0.2231325121        5.4184688724      -68.2323380043  TIP3      4327            0.0000000000
     21557      4391  TIP3      H2             -0.5919297436        3.9598228656      -67.9642966650  TIP3      4327            0.0000000000
     21558      4392  TIP3      OH2            13.2269768010       10.2984365048      -71.1869311030  TIP3      4328            0.0000000000
     21559      4392  TIP3      H1             13.4075557742       11.2446825035      -71.0856999550  TIP3      4328            0.0000000000
     21560      4392  TIP3      H2             14.1107109520        9.8984790684      -71.3063763914  TIP3      4328            0.0000000000
     21561      4393  TIP3      OH2            -3.8358108712        7.0687075640      -58.7887426529  TIP3      4329            0.0000000000
     21562      4393  TIP3      H1             -4.2647166975        6.9886165092      -59.6590271240  TIP3      4329            0.0000000000
     21563      4393  TIP3      H2             -3.7138557861        6.1211370312      -58.5819130357  TIP3      4329            0.0000000000
     21564      4394  TIP3      OH2            -4.0744687997        9.8064378343      -62.0367334977  TIP3      4330            0.0000000000
     21565      4394  TIP3      H1             -3.1176498535        9.6863610189      -62.0581070222  TIP3      4330            0.0000000000
     21566      4394  TIP3      H2             -4.1452773235       10.6360845454      -61.5496959381  TIP3      4330            0.0000000000
     21567      4395  TIP3      OH2            14.1775166286       10.5214064835      -56.3276464709  TIP3      4331            0.0000000000
     21568      4395  TIP3      H1             14.0451530434        9.5631599260      -56.3780091888  TIP3      4331            0.0000000000
     21569      4395  TIP3      H2             13.2947298299       10.7751542026      -55.9691293412  TIP3      4331            0.0000000000
     21570      4396  TIP3      OH2             5.1279619982       10.0434084698      -57.4849989143  TIP3      4332            0.0000000000
     21571      4396  TIP3      H1              5.1759578779       10.8877154035      -56.9774005294  TIP3      4332            0.0000000000
     21572      4396  TIP3      H2              4.2577927694        9.6737323446      -57.2404102068  TIP3      4332            0.0000000000
     21573      4397  TIP3      OH2             5.5898846866       13.7808137550      -67.7419221703  TIP3      4333            0.0000000000
     21574      4397  TIP3      H1              5.4756291171       13.7705336516      -68.7047364376  TIP3      4333            0.0000000000
     21575      4397  TIP3      H2              5.6143197893       14.7359050839      -67.5274917169  TIP3      4333            0.0000000000
     21576      4398  TIP3      OH2            -0.7866710591       12.6919398674      -65.8217606763  TIP3      4334            0.0000000000
     21577      4398  TIP3      H1             -0.6253225726       12.2572708055      -64.9527906238  TIP3      4334            0.0000000000
     21578      4398  TIP3      H2             -1.6251999443       12.2694967822      -66.0773319428  TIP3      4334            0.0000000000
     21579      4399  TIP3      OH2             8.5245759362       13.0128622455      -70.7179036524  TIP3      4335            0.0000000000
     21580      4399  TIP3      H1              9.0647011000       12.3246805907      -71.1871529810  TIP3      4335            0.0000000000
     21581      4399  TIP3      H2              8.6833503597       12.7578248561      -69.7928420932  TIP3      4335            0.0000000000
     21582      4400  TIP3      OH2             8.3280214223       12.9706213645      -67.9068701861  TIP3      4336            0.0000000000
     21583      4400  TIP3      H1              7.3678327623       13.0208308789      -67.7399148337  TIP3      4336            0.0000000000
     21584      4400  TIP3      H2              8.5541007291       12.1898735650      -67.3825982422  TIP3      4336            0.0000000000
     21585      4401  TIP3      OH2            11.3564624835        1.9511491100      -55.9517730542  TIP3      4337            0.0000000000
     21586      4401  TIP3      H1             10.8140172578        2.3901751822      -56.6283337624  TIP3      4337            0.0000000000
     21587      4401  TIP3      H2             11.2748119382        1.0143738957      -56.1743459016  TIP3      4337            0.0000000000
     21588      4402  TIP3      OH2            -1.5203710278        8.3787316607      -57.8753890259  TIP3      4338            0.0000000000
     21589      4402  TIP3      H1             -1.3151067609        8.0346782699      -56.9800507171  TIP3      4338            0.0000000000
     21590      4402  TIP3      H2             -2.3980280465        7.9963231272      -58.0830049892  TIP3      4338            0.0000000000
     21591      4403  TIP3      OH2             1.1552384247       -3.0975474729      -61.9261674083  TIP3      4339            0.0000000000
     21592      4403  TIP3      H1              0.2709364358       -3.2785617811      -62.3094426783  TIP3      4339            0.0000000000
     21593      4403  TIP3      H2              0.9729103283       -2.2910586265      -61.4204188155  TIP3      4339            0.0000000000
     21594      4404  TIP3      OH2             5.8206497062       -3.4684043904      -58.5696145760  TIP3      4340            0.0000000000
     21595      4404  TIP3      H1              6.1964451997       -3.9133958029      -57.7878524905  TIP3      4340            0.0000000000
     21596      4404  TIP3      H2              4.8437013060       -3.5680142410      -58.4372232017  TIP3      4340            0.0000000000
     21597      4405  TIP3      OH2             9.0627674522        0.3956863517      -57.6953993761  TIP3      4341            0.0000000000
     21598      4405  TIP3      H1              8.5019405202        0.1572634631      -56.9150567923  TIP3      4341            0.0000000000
     21599      4405  TIP3      H2              8.8831030367        1.3354538713      -57.8772633511  TIP3      4341            0.0000000000
     21600      4406  TIP3      OH2             9.8376491754        5.3050725260      -71.8246820471  TIP3      4342            0.0000000000
     21601      4406  TIP3      H1              9.9197729821        5.2002872549      -72.7825793781  TIP3      4342            0.0000000000
     21602      4406  TIP3      H2             10.6777338500        5.7654383374      -71.6467029907  TIP3      4342            0.0000000000
     21603      4407  TIP3      OH2             5.4501725373       -0.8894221143      -71.1700059563  TIP3      4343            0.0000000000
     21604      4407  TIP3      H1              5.0618045347       -0.9465082831      -70.2749173750  TIP3      4343            0.0000000000
     21605      4407  TIP3      H2              5.1539698609       -1.7349305705      -71.5298570381  TIP3      4343            0.0000000000
     21606      4408  TIP3      OH2             1.2564434576        1.8598679648      -60.6300271371  TIP3      4344            0.0000000000
     21607      4408  TIP3      H1              0.5100555162        1.8665144020      -60.0081876598  TIP3      4344            0.0000000000
     21608      4408  TIP3      H2              1.2043953909        2.7517487466      -61.0450873486  TIP3      4344            0.0000000000
     21609      4409  TIP3      OH2             1.2240950784        1.9142132516      -65.7984309001  TIP3      4345            0.0000000000
     21610      4409  TIP3      H1              0.2757272472        1.7072366992      -65.9233519065  TIP3      4345            0.0000000000
     21611      4409  TIP3      H2              1.5826351379        1.6670157947      -66.6761549798  TIP3      4345            0.0000000000
     21612      4410  TIP3      OH2             6.7384653428        2.4338341355      -67.0976862018  TIP3      4346            0.0000000000
     21613      4410  TIP3      H1              6.3529601511        3.2795046949      -67.4211338572  TIP3      4346            0.0000000000
     21614      4410  TIP3      H2              7.4371229843        2.2695030497      -67.7570130792  TIP3      4346            0.0000000000
     21615      4411  TIP3      OH2             5.7660843818        2.6755207222      -55.6195580842  TIP3      4347            0.0000000000
     21616      4411  TIP3      H1              5.2658007417        1.8807445270      -55.3133506136  TIP3      4347            0.0000000000
     21617      4411  TIP3      H2              6.6104814799        2.5815868867      -55.1438516063  TIP3      4347            0.0000000000
     21618      4412  TIP3      OH2             7.8082475722        1.9518069765      -64.1730851024  TIP3      4348            0.0000000000
     21619      4412  TIP3      H1              7.4785172150        2.5262671585      -64.8870989026  TIP3      4348            0.0000000000
     21620      4412  TIP3      H2              7.8303552240        1.1110611837      -64.6548836713  TIP3      4348            0.0000000000
     21621      4413  TIP3      OH2            -1.1666729065        2.0595969176      -59.0319133250  TIP3      4349            0.0000000000
     21622      4413  TIP3      H1             -1.0048350741        2.4680255894      -58.1639720196  TIP3      4349            0.0000000000
     21623      4413  TIP3      H2             -1.5586959323        1.2068545246      -58.7814247449  TIP3      4349            0.0000000000
     21624      4414  TIP3      OH2             2.1952122686       -0.1370372260      -71.7812666025  TIP3      4350            0.0000000000
     21625      4414  TIP3      H1              1.8463101862       -0.9427596471      -71.3523950633  TIP3      4350            0.0000000000
     21626      4414  TIP3      H2              1.7326773273       -0.1842376292      -72.6230471412  TIP3      4350            0.0000000000
     21627      4415  TIP3      OH2            -4.4615761048       -0.8534629298      -64.9965891579  TIP3      4351            0.0000000000
     21628      4415  TIP3      H1             -3.7723879801       -0.8793777065      -64.2952406859  TIP3      4351            0.0000000000
     21629      4415  TIP3      H2             -4.0079235398       -1.1843433830      -65.7871206000  TIP3      4351            0.0000000000
     21630      4416  TIP3      OH2            -3.2981000214       -0.1387821538      -69.7626246465  TIP3      4352            0.0000000000
     21631      4416  TIP3      H1             -2.6527595347        0.4639448158      -70.1861204605  TIP3      4352            0.0000000000
     21632      4416  TIP3      H2             -3.8750213424        0.5486708077      -69.3554204161  TIP3      4352            0.0000000000
     21633      4417  TIP3      OH2             6.9458333399        3.5150274108      -59.6868621447  TIP3      4353            0.0000000000
     21634      4417  TIP3      H1              7.3578127339        2.8153998333      -60.2404436289  TIP3      4353            0.0000000000
     21635      4417  TIP3      H2              6.4694552935        3.0034695728      -59.0066571042  TIP3      4353            0.0000000000
     21636      4418  TIP3      OH2             3.7872663913       -0.4507206953      -64.7980850655  TIP3      4354            0.0000000000
     21637      4418  TIP3      H1              2.8505489983       -0.4976431876      -64.5300861039  TIP3      4354            0.0000000000
     21638      4418  TIP3      H2              4.2543446339       -0.7075781589      -63.9910400645  TIP3      4354            0.0000000000
     21639      4419  TIP3      OH2            -1.4317093026        1.0602545322      -65.9248073731  TIP3      4355            0.0000000000
     21640      4419  TIP3      H1             -2.3041872014        1.2407062064      -66.3301583058  TIP3      4355            0.0000000000
     21641      4419  TIP3      H2             -1.1567703334        0.2240853138      -66.3445678140  TIP3      4355            0.0000000000
     21642      4420  TIP3      OH2             2.1861594050        1.1704913818      -68.2893636999  TIP3      4356            0.0000000000
     21643      4420  TIP3      H1              3.1527858752        1.2132466317      -68.1751730961  TIP3      4356            0.0000000000
     21644      4420  TIP3      H2              1.9870605266        1.7836921076      -69.0192694586  TIP3      4356            0.0000000000
     21645      4421  TIP3      OH2             8.1815536366       -1.2503736808      -61.6191253561  TIP3      4357            0.0000000000
     21646      4421  TIP3      H1              7.5392489948       -1.2146026855      -60.8672685797  TIP3      4357            0.0000000000
     21647      4421  TIP3      H2              7.5849286918       -1.5213980271      -62.3382469477  TIP3      4357            0.0000000000
     21648      4422  TIP3      OH2             0.8464610236        2.3812866096      -70.7584300140  TIP3      4358            0.0000000000
     21649      4422  TIP3      H1              0.4067466239        1.9014093404      -71.4601464660  TIP3      4358            0.0000000000
     21650      4422  TIP3      H2              1.7430864969        2.4798035686      -71.1389277523  TIP3      4358            0.0000000000
     21651      4423  TIP3      OH2            11.3484432591       14.3898703637      -55.2363970159  TIP3      4359            0.0000000000
     21652      4423  TIP3      H1             11.6230143754       14.7564304170      -56.0972027520  TIP3      4359            0.0000000000
     21653      4423  TIP3      H2             12.0779442413       14.7031450283      -54.6809134397  TIP3      4359            0.0000000000
     21654      4424  TIP3      OH2            -0.9664753631        6.8592491311      -55.6550737837  TIP3      4360            0.0000000000
     21655      4424  TIP3      H1             -0.2346762306        7.1033211426      -55.0621191131  TIP3      4360            0.0000000000
     21656      4424  TIP3      H2             -1.7271864699        6.8932124994      -55.0363698447  TIP3      4360            0.0000000000
     21657      4425  TIP3      OH2             5.0097439126        2.2794912726      -62.9156201641  TIP3      4361            0.0000000000
     21658      4425  TIP3      H1              5.6359044767        1.7730495263      -63.4478857092  TIP3      4361            0.0000000000
     21659      4425  TIP3      H2              4.8973699396        1.7166419682      -62.1383438876  TIP3      4361            0.0000000000
     21660      4426  TIP3      OH2             0.0408921067       -1.6293430319      -66.4396644155  TIP3      4362            0.0000000000
     21661      4426  TIP3      H1             -0.2146402478       -2.5702230943      -66.4465837967  TIP3      4362            0.0000000000
     21662      4426  TIP3      H2              0.8259973852       -1.6693397342      -67.0018713408  TIP3      4362            0.0000000000
     21663      4427  TIP3      OH2             3.6819116173        0.5787356575      -60.4932020921  TIP3      4363            0.0000000000
     21664      4427  TIP3      H1              2.8668400155        1.1172883871      -60.4271725336  TIP3      4363            0.0000000000
     21665      4427  TIP3      H2              4.2480393303        0.9577081454      -59.7980934733  TIP3      4363            0.0000000000
     21666      4428  TIP3      OH2             4.2729831646        6.8219196409      -68.7977964475  TIP3      4364            0.0000000000
     21667      4428  TIP3      H1              3.4666777798        6.3505825126      -69.1092680098  TIP3      4364            0.0000000000
     21668      4428  TIP3      H2              4.0362086003        6.9853616365      -67.8650688635  TIP3      4364            0.0000000000
     21669      4429  TIP3      OH2            11.4955248404        6.0498186332      -59.9945172051  TIP3      4365            0.0000000000
     21670      4429  TIP3      H1             12.0285262059        6.5379323455      -60.6511903833  TIP3      4365            0.0000000000
     21671      4429  TIP3      H2             10.6246113897        6.0477550099      -60.4410503447  TIP3      4365            0.0000000000
     21672      4430  TIP3      OH2             8.0839886800       -0.3663394764      -70.6511931135  TIP3      4366            0.0000000000
     21673      4430  TIP3      H1              7.1267811028       -0.2573894598      -70.7972623751  TIP3      4366            0.0000000000
     21674      4430  TIP3      H2              8.4081023586        0.4687036113      -70.2586139894  TIP3      4366            0.0000000000
     21675      4431  TIP3      OH2             5.7612786190        7.1217863699      -57.5542565928  TIP3      4367            0.0000000000
     21676      4431  TIP3      H1              5.4119505913        6.6595043189      -56.7847815769  TIP3      4367            0.0000000000
     21677      4431  TIP3      H2              5.4688612356        8.0278342032      -57.4134968040  TIP3      4367            0.0000000000
     21678      4432  TIP3      OH2             8.8333998371        1.5741404973      -68.9733396931  TIP3      4368            0.0000000000
     21679      4432  TIP3      H1              9.7071099306        1.4348938177      -68.5514949109  TIP3      4368            0.0000000000
     21680      4432  TIP3      H2              8.9582699902        2.4048530070      -69.4621353655  TIP3      4368            0.0000000000
     21681      4433  TIP3      OH2            -0.6115232965        6.2344432378      -62.9963469722  TIP3      4369            0.0000000000
     21682      4433  TIP3      H1              0.0406992246        6.1281307636      -63.7129500826  TIP3      4369            0.0000000000
     21683      4433  TIP3      H2             -0.5555985516        5.3854422532      -62.5265349664  TIP3      4369            0.0000000000
     21684      4434  TIP3      OH2             6.3733910137        8.2352742084      -69.8040326638  TIP3      4370            0.0000000000
     21685      4434  TIP3      H1              6.0321753264        9.0919034741      -69.4828646918  TIP3      4370            0.0000000000
     21686      4434  TIP3      H2              5.6316137635        7.6383548145      -69.5707287709  TIP3      4370            0.0000000000
     21687      4435  TIP3      OH2            -3.6276011420        4.6038375201      -57.7479336714  TIP3      4371            0.0000000000
     21688      4435  TIP3      H1             -3.4852806150        4.1569717698      -56.8880233755  TIP3      4371            0.0000000000
     21689      4435  TIP3      H2             -4.2568272405        4.0174667496      -58.1997792607  TIP3      4371            0.0000000000
     21690      4436  TIP3      OH2             3.3893026156        4.1843665023      -55.5840931261  TIP3      4372            0.0000000000
     21691      4436  TIP3      H1              3.0460014946        3.8252834613      -56.4177250147  TIP3      4372            0.0000000000
     21692      4436  TIP3      H2              4.3001105524        3.8265130224      -55.5873235503  TIP3      4372            0.0000000000
     21693      4437  TIP3      OH2             8.0971524380        9.5252708754      -57.5815843395  TIP3      4373            0.0000000000
     21694      4437  TIP3      H1              7.1719428119        9.6878030798      -57.8301417328  TIP3      4373            0.0000000000
     21695      4437  TIP3      H2              8.0437728255        9.8229756662      -56.6519052255  TIP3      4373            0.0000000000
     21696      4438  TIP3      OH2            13.7667381788        1.6879588908      -69.2052750291  TIP3      4374            0.0000000000
     21697      4438  TIP3      H1             13.1399163676        1.4285428567      -69.9187244988  TIP3      4374            0.0000000000
     21698      4438  TIP3      H2             13.8241012859        2.6336721005      -69.4431077424  TIP3      4374            0.0000000000
     21699      4439  TIP3      OH2            13.7265546224        7.5466034210      -56.4370918289  TIP3      4375            0.0000000000
     21700      4439  TIP3      H1             12.8300970482        7.7765710522      -56.7829897401  TIP3      4375            0.0000000000
     21701      4439  TIP3      H2             14.2583013347        7.4872694227      -57.2607281575  TIP3      4375            0.0000000000
     21702      4440  TIP3      OH2            12.0186926786       10.4864288287      -68.8417770815  TIP3      4376            0.0000000000
     21703      4440  TIP3      H1             11.6300273665        9.6628615202      -68.5344679095  TIP3      4376            0.0000000000
     21704      4440  TIP3      H2             12.3308795610       10.2799634082      -69.7479769301  TIP3      4376            0.0000000000
     21705      4441  TIP3      OH2             9.2506223751        5.3287349396      -61.7169852466  TIP3      4377            0.0000000000
     21706      4441  TIP3      H1              8.3067635084        5.1451420306      -61.8548714932  TIP3      4377            0.0000000000
     21707      4441  TIP3      H2              9.6783516479        4.5903834592      -62.1852657044  TIP3      4377            0.0000000000
     21708      4442  TIP3      OH2             1.7667511235        9.6808854056      -65.6063964912  TIP3      4378            0.0000000000
     21709      4442  TIP3      H1              2.2520523300       10.4955400786      -65.8107193208  TIP3      4378            0.0000000000
     21710      4442  TIP3      H2              0.8877203376        9.8990243645      -65.9489002817  TIP3      4378            0.0000000000
     21711      4443  TIP3      OH2            -2.4815804808        4.5451462295      -71.1495417566  TIP3      4379            0.0000000000
     21712      4443  TIP3      H1             -1.9001453240        5.1706628215      -70.6688501126  TIP3      4379            0.0000000000
     21713      4443  TIP3      H2             -3.3642906262        4.7852147898      -70.7988128419  TIP3      4379            0.0000000000
     21714      4444  TIP3      OH2             3.1564252072        7.3369868670      -66.1081986989  TIP3      4380            0.0000000000
     21715      4444  TIP3      H1              2.8162422400        8.2518544336      -66.0235525536  TIP3      4380            0.0000000000
     21716      4444  TIP3      H2              2.4686186950        6.8227760433      -65.6434712350  TIP3      4380            0.0000000000
     21717      4445  TIP3      OH2             3.6101778166       11.5331638563      -59.6502536554  TIP3      4381            0.0000000000
     21718      4445  TIP3      H1              4.1046381367       12.3047410501      -59.9619335215  TIP3      4381            0.0000000000
     21719      4445  TIP3      H2              4.2411966133       11.1628961282      -59.0086008194  TIP3      4381            0.0000000000
     21720      4446  TIP3      OH2             1.8334059335       12.3134706993      -66.5604743558  TIP3      4382            0.0000000000
     21721      4446  TIP3      H1              0.8753695658       12.4742337109      -66.4177982615  TIP3      4382            0.0000000000
     21722      4446  TIP3      H2              2.2192565404       13.1578133767      -66.2533388390  TIP3      4382            0.0000000000
     21723      4447  TIP3      OH2             7.0918816931        7.4871731955      -60.0812061573  TIP3      4383            0.0000000000
     21724      4447  TIP3      H1              6.8248329308        7.3149626716      -59.1528794396  TIP3      4383            0.0000000000
     21725      4447  TIP3      H2              7.7548819146        6.7958985815      -60.2482876366  TIP3      4383            0.0000000000
     21726      4448  TIP3      OH2             9.4432357051        8.6376533500      -70.8646803982  TIP3      4384            0.0000000000
     21727      4448  TIP3      H1              9.7684203205        8.0733780180      -70.1403690114  TIP3      4384            0.0000000000
     21728      4448  TIP3      H2              8.5097801101        8.3963479202      -70.8773888188  TIP3      4384            0.0000000000
     21729      4449  TIP3      OH2             9.9812843670       12.0905451410      -57.5937346858  TIP3      4385            0.0000000000
     21730      4449  TIP3      H1              9.2643682246       11.6086535663      -58.0465824681  TIP3      4385            0.0000000000
     21731      4449  TIP3      H2             10.1433007628       12.7909035402      -58.2640302784  TIP3      4385            0.0000000000
     21732      4450  TIP3      OH2            13.9765092379       12.9685192344      -70.7118649507  TIP3      4386            0.0000000000
     21733      4450  TIP3      H1             14.6672480542       13.6278148952      -70.8904205917  TIP3      4386            0.0000000000
     21734      4450  TIP3      H2             13.2496178757       13.5640989942      -70.4187299338  TIP3      4386            0.0000000000
     21735      4451  TIP3      OH2            -1.9779052538       -0.6595437165      -58.1978394963  TIP3      4387            0.0000000000
     21736      4451  TIP3      H1             -2.8799320504       -0.3019133589      -58.1954054172  TIP3      4387            0.0000000000
     21737      4451  TIP3      H2             -2.0747431935       -1.4956762485      -57.7131280819  TIP3      4387            0.0000000000
     21738      4452  TIP3      OH2            10.2343025514        7.2131713650      -68.6996301112  TIP3      4388            0.0000000000
     21739      4452  TIP3      H1             10.0018981578        6.3941493752      -68.2196022134  TIP3      4388            0.0000000000
     21740      4452  TIP3      H2             11.1905064267        7.2598181252      -68.5429093224  TIP3      4388            0.0000000000
     21741      4453  TIP3      OH2            -2.3731923364       11.1056718109      -59.7763298373  TIP3      4389            0.0000000000
     21742      4453  TIP3      H1             -2.0183545657       10.2048867722      -59.7629486633  TIP3      4389            0.0000000000
     21743      4453  TIP3      H2             -2.1085090139       11.4272459886      -58.9058627061  TIP3      4389            0.0000000000
     21744      4454  TIP3      OH2             2.3710868823        9.2237814031      -70.0285821821  TIP3      4390            0.0000000000
     21745      4454  TIP3      H1              2.6636396491        8.6795705830      -69.2911093287  TIP3      4390            0.0000000000
     21746      4454  TIP3      H2              2.4714489611       10.1399774295      -69.7038326434  TIP3      4390            0.0000000000
     21747      4455  TIP3      OH2            -1.1404172999        6.4454497507      -69.6746130047  TIP3      4391            0.0000000000
     21748      4455  TIP3      H1             -1.7858703922        6.8527006062      -69.0522940928  TIP3      4391            0.0000000000
     21749      4455  TIP3      H2             -0.5119810030        7.1826947085      -69.8162018514  TIP3      4391            0.0000000000
     21750      4456  TIP3      OH2             6.7886376044       -0.8720841833      -59.2204855117  TIP3      4392            0.0000000000
     21751      4456  TIP3      H1              7.5186412847       -0.8028254547      -58.5944191188  TIP3      4392            0.0000000000
     21752      4456  TIP3      H2              6.3908066319       -1.7346568239      -58.9765888777  TIP3      4392            0.0000000000
     21753      4457  TIP3      OH2             7.4597596788       -1.2718645188      -68.1383413752  TIP3      4393            0.0000000000
     21754      4457  TIP3      H1              7.7468340762       -0.8452445210      -68.9664561861  TIP3      4393            0.0000000000
     21755      4457  TIP3      H2              8.0610579968       -0.8849365810      -67.4832380704  TIP3      4393            0.0000000000
     21756      4458  TIP3      OH2             5.1259204654       10.8394278348      -69.4341201628  TIP3      4394            0.0000000000
     21757      4458  TIP3      H1              4.3280474973       11.3801434618      -69.2671897573  TIP3      4394            0.0000000000
     21758      4458  TIP3      H2              5.7183163420       11.4677841065      -69.8668871109  TIP3      4394            0.0000000000
     21759      4459  TIP3      OH2             4.7288669751        0.4121052222      -67.3162394673  TIP3      4395            0.0000000000
     21760      4459  TIP3      H1              5.4764852577        1.0386763840      -67.2861846743  TIP3      4395            0.0000000000
     21761      4459  TIP3      H2              4.4462450914        0.2972109567      -66.3879049530  TIP3      4395            0.0000000000
     21762      4460  TIP3      OH2             5.3078301302        1.4688766248      -58.1083050387  TIP3      4396            0.0000000000
     21763      4460  TIP3      H1              5.3745572721        2.0101025296      -57.2947029354  TIP3      4396            0.0000000000
     21764      4460  TIP3      H2              5.9663248821        0.7691797546      -58.0217449938  TIP3      4396            0.0000000000
     21765      4461  TIP3      OH2             5.5915480768       -2.5175059865      -66.4756694635  TIP3      4397            0.0000000000
     21766      4461  TIP3      H1              5.2129254049       -1.8752075193      -65.8545261501  TIP3      4397            0.0000000000
     21767      4461  TIP3      H2              6.2804817925       -1.9503137130      -66.9043101248  TIP3      4397            0.0000000000
     21768      4462  TIP3      OH2             2.5958508855       11.9237720775      -69.2806793214  TIP3      4398            0.0000000000
     21769      4462  TIP3      H1              2.7482840056       12.7350526252      -69.8075202801  TIP3      4398            0.0000000000
     21770      4462  TIP3      H2              2.2903015447       12.2675609217      -68.4155436149  TIP3      4398            0.0000000000
     21771      4463  TIP3      OH2             1.2166873005       -1.4133395027      -69.6788302669  TIP3      4399            0.0000000000
     21772      4463  TIP3      H1              1.1997985017       -0.5084769841      -69.3183467017  TIP3      4399            0.0000000000
     21773      4463  TIP3      H2              2.1330060055       -1.6665445579      -69.4698454341  TIP3      4399            0.0000000000
     21774      4464  TIP3      OH2            11.4254194934       -0.6875472938      -57.2559176095  TIP3      4400            0.0000000000
     21775      4464  TIP3      H1             10.5135984488       -0.3310751524      -57.3933141139  TIP3      4400            0.0000000000
     21776      4464  TIP3      H2             11.7754108294       -0.6666850528      -58.1536208856  TIP3      4400            0.0000000000
     21777      4465  TIP3      OH2            10.0878449184        3.1037555072      -63.2972775992  TIP3      4401            0.0000000000
     21778      4465  TIP3      H1              9.2463938481        2.6719197837      -63.5387713301  TIP3      4401            0.0000000000
     21779      4465  TIP3      H2             10.5589478974        2.4419681196      -62.7590852333  TIP3      4401            0.0000000000
     21780      4466  TIP3      OH2            -0.4817613157        9.0328539622      -70.5676917564  TIP3      4402            0.0000000000
     21781      4466  TIP3      H1              0.1641225880        9.6988511921      -70.3224259743  TIP3      4402            0.0000000000
     21782      4466  TIP3      H2              0.0438085543        8.6343263588      -71.2975867827  TIP3      4402            0.0000000000
     21783      4467  TIP3      OH2            -2.1869930198        1.7515330628      -71.4078798706  TIP3      4403            0.0000000000
     21784      4467  TIP3      H1             -2.1966046167        2.7221778565      -71.2690886632  TIP3      4403            0.0000000000
     21785      4467  TIP3      H2             -3.0463391550        1.6036266383      -71.8134480779  TIP3      4403            0.0000000000
     21786      4468  TIP3      OH2            11.1454348707       12.4003595115      -61.6225996987  TIP3      4404            0.0000000000
     21787      4468  TIP3      H1             11.0697908250       13.0737854263      -62.3274376913  TIP3      4404            0.0000000000
     21788      4468  TIP3      H2             12.1088939666       12.4349100655      -61.4437770243  TIP3      4404            0.0000000000
     21789      4469  TIP3      OH2            -1.3874907871       -3.4925174213      -62.7575677449  TIP3      4405            0.0000000000
     21790      4469  TIP3      H1             -1.5275123047       -3.4966158202      -63.7320746313  TIP3      4405            0.0000000000
     21791      4469  TIP3      H2             -1.7433205455       -4.3772022323      -62.5361699805  TIP3      4405            0.0000000000
     21792      4470  TIP3      OH2            -2.4164721934       10.4184541093      -66.6445721731  TIP3      4406            0.0000000000
     21793      4470  TIP3      H1             -3.2857570590       10.8311447302      -66.7063963202  TIP3      4406            0.0000000000
     21794      4470  TIP3      H2             -1.9818786802       10.8655498970      -67.3818686045  TIP3      4406            0.0000000000
     21795      4471  TIP3      OH2            -3.2510263445       13.0807385617      -55.3783449111  TIP3      4407            0.0000000000
     21796      4471  TIP3      H1             -2.6245057126       12.9100001512      -54.6472428145  TIP3      4407            0.0000000000
     21797      4471  TIP3      H2             -3.6091048274       12.1926169731      -55.5473178803  TIP3      4407            0.0000000000
     21798      4472  TIP3      OH2             1.4763527447       12.0011829587      -53.7748706664  TIP3      4408            0.0000000000
     21799      4472  TIP3      H1              2.2283623791       11.4961635964      -53.4324433363  TIP3      4408            0.0000000000
     21800      4472  TIP3      H2              1.4441844754       11.7092280306      -54.7078561634  TIP3      4408            0.0000000000
     21801      4473  TIP3      OH2             5.5050169204       11.4487308576      -72.4657774476  TIP3      4409            0.0000000000
     21802      4473  TIP3      H1              4.9361403834       10.8057086528      -72.0237229718  TIP3      4409            0.0000000000
     21803      4473  TIP3      H2              6.3431400452       10.9777716113      -72.5532890892  TIP3      4409            0.0000000000
     21804      4474  TIP3      OH2             7.9373540167       10.3957191194      -54.9919005177  TIP3      4410            0.0000000000
     21805      4474  TIP3      H1              7.6285442527        9.5071815067      -54.7109952347  TIP3      4410            0.0000000000
     21806      4474  TIP3      H2              8.7247987962       10.5123509076      -54.4243122881  TIP3      4410            0.0000000000
     21807      4475  TIP3      OH2            10.1454991108       11.2891895178      -72.0806042769  TIP3      4411            0.0000000000
     21808      4475  TIP3      H1             10.4411143701       10.4562008738      -71.6571628158  TIP3      4411            0.0000000000
     21809      4475  TIP3      H2             10.8948588914       11.6846359876      -72.5369254507  TIP3      4411            0.0000000000
     21810      4476  TIP3      OH2            -3.3463602480        6.8359470293      -54.3614172094  TIP3      4412            0.0000000000
     21811      4476  TIP3      H1             -3.1729344269        5.9238874934      -54.6555312410  TIP3      4412            0.0000000000
     21812      4476  TIP3      H2             -4.0588093160        7.0981288670      -54.9679140788  TIP3      4412            0.0000000000
     21813      4477  TIP3      OH2             1.1353287635        7.0445217750      -72.0038850503  TIP3      4413            0.0000000000
     21814      4477  TIP3      H1              1.2901520509        6.1729658320      -71.6386842990  TIP3      4413            0.0000000000
     21815      4477  TIP3      H2              1.6849461968        7.0522431347      -72.8055424661  TIP3      4413            0.0000000000
     21816      4478  TIP3      OH2             3.4002400807        6.8481888148      -54.9951149948  TIP3      4414            0.0000000000
     21817      4478  TIP3      H1              3.0739534556        7.1831011575      -55.8530960903  TIP3      4414            0.0000000000
     21818      4478  TIP3      H2              3.4459579463        5.8678853650      -55.1180277129  TIP3      4414            0.0000000000
     21819      4479  TIP3      OH2             9.0841407570        6.6831738503      -57.5858655509  TIP3      4415            0.0000000000
     21820      4479  TIP3      H1              9.8928266822        7.2419066182      -57.6188479386  TIP3      4415            0.0000000000
     21821      4479  TIP3      H2              8.4092557973        7.3796127255      -57.5695082822  TIP3      4415            0.0000000000
     21822      4480  TIP3      OH2            -2.3989818878        4.0707548202      -54.9852335364  TIP3      4416            0.0000000000
     21823      4480  TIP3      H1             -1.9423983388        3.2243476828      -55.0587316875  TIP3      4416            0.0000000000
     21824      4480  TIP3      H2             -2.5878171290        4.1005166069      -54.0330908317  TIP3      4416            0.0000000000
     21825      4481  TIP3      OH2             2.2853747136        5.2413857417      -69.8700119592  TIP3      4417            0.0000000000
     21826      4481  TIP3      H1              1.7108516821        4.6936613667      -69.3104750280  TIP3      4417            0.0000000000
     21827      4481  TIP3      H2              2.5842643851        4.5860545555      -70.5383527123  TIP3      4417            0.0000000000
     21828      4482  TIP3      OH2             1.5016204037        3.0038358271      -57.6586590503  TIP3      4418            0.0000000000
     21829      4482  TIP3      H1              0.9147631177        3.7344832136      -57.4065841610  TIP3      4418            0.0000000000
     21830      4482  TIP3      H2              1.9327371325        3.3838491326      -58.4441616345  TIP3      4418            0.0000000000
     21831      4483  TIP3      OH2             3.3004604981        3.3068126100      -71.5670776304  TIP3      4419            0.0000000000
     21832      4483  TIP3      H1              3.1629732323        3.3557631760      -72.5400420099  TIP3      4419            0.0000000000
     21833      4483  TIP3      H2              4.2546297315        3.5137544846      -71.5493797034  TIP3      4419            0.0000000000
     21834      4484  TIP3      OH2             6.6103538473        5.6068514264      -54.2778709314  TIP3      4420            0.0000000000
     21835      4484  TIP3      H1              7.5552170662        5.5346304471      -54.4568721314  TIP3      4420            0.0000000000
     21836      4484  TIP3      H2              6.4231927153        4.8241276440      -53.7323977236  TIP3      4420            0.0000000000
     21837      4485  TIP3      OH2            12.7163524015        5.6217998946       72.7202747450  TIP3      4421            0.0000000000
     21838      4485  TIP3      H1             12.4252231098        5.3560166591       71.8356295857  TIP3      4421            0.0000000000
     21839      4485  TIP3      H2             12.6776513468        6.6026163889       72.6573821290  TIP3      4421            0.0000000000
     21840      4486  TIP3      OH2             1.9258943173        0.3948866713      -56.6186499863  TIP3      4422            0.0000000000
     21841      4486  TIP3      H1              2.0473354811       -0.3056271475      -57.2894340927  TIP3      4422            0.0000000000
     21842      4486  TIP3      H2              1.8727346145        1.2123019229      -57.1527972553  TIP3      4422            0.0000000000
     21843      4487  TIP3      OH2             2.3366528547       -1.2317022790      -59.0319467105  TIP3      4423            0.0000000000
     21844      4487  TIP3      H1              2.8302826707       -0.7675798451      -59.7475173552  TIP3      4423            0.0000000000
     21845      4487  TIP3      H2              1.4317367443       -1.2899780629      -59.4126863641  TIP3      4423            0.0000000000
     21846      4488  TIP3      OH2             3.8527834904        4.3054281744      -58.7880547749  TIP3      4424            0.0000000000
     21847      4488  TIP3      H1              4.6166698356        4.1307509863      -59.3506564421  TIP3      4424            0.0000000000
     21848      4488  TIP3      H2              3.4745831003        5.1283321801      -59.1480070571  TIP3      4424            0.0000000000
     21849      4489  TIP3      OH2             8.2475183419        2.0131208254      -53.8884797501  TIP3      4425            0.0000000000
     21850      4489  TIP3      H1              8.4818902025        1.0705633342      -53.9142520120  TIP3      4425            0.0000000000
     21851      4489  TIP3      H2              9.1132138487        2.4412224932      -53.7687552040  TIP3      4425            0.0000000000
     21852      4490  TIP3      OH2             9.6193677086        4.8269362758      -55.6242556133  TIP3      4426            0.0000000000
     21853      4490  TIP3      H1              9.3511991805        5.5276914808      -56.2595260195  TIP3      4426            0.0000000000
     21854      4490  TIP3      H2             10.5745316604        4.7898019032      -55.8196213977  TIP3      4426            0.0000000000
     21855      4491  TIP3      OH2             0.3929680462        1.6449150847      -54.6756548703  TIP3      4427            0.0000000000
     21856      4491  TIP3      H1             -0.3806412979        1.0615274023      -54.8203910068  TIP3      4427            0.0000000000
     21857      4491  TIP3      H2              1.0313445062        1.2702709736      -55.3067361310  TIP3      4427            0.0000000000
     21858      4492  TIP3      OH2             3.1202437839       -3.7893553852      -58.6731757166  TIP3      4428            0.0000000000
     21859      4492  TIP3      H1              2.9040034606       -2.8285684648      -58.7521582600  TIP3      4428            0.0000000000
     21860      4492  TIP3      H2              2.3728690741       -4.1731018201      -59.1673117159  TIP3      4428            0.0000000000
     21861      4493  TIP3      OH2             4.3850325960        0.5443106359      -54.9900315773  TIP3      4429            0.0000000000
     21862      4493  TIP3      H1              4.0483857373        0.2980371734      -54.1054678289  TIP3      4429            0.0000000000
     21863      4493  TIP3      H2              3.6225768183        0.3278508895      -55.5518505839  TIP3      4429            0.0000000000
     21864      4494  TIP3      OH2             7.1151961750       -0.3117661410      -55.8925130154  TIP3      4430            0.0000000000
     21865      4494  TIP3      H1              6.1506834443       -0.2439219194      -55.7823827328  TIP3      4430            0.0000000000
     21866      4494  TIP3      H2              7.3601739364       -0.9531493837      -55.1869594578  TIP3      4430            0.0000000000
     21867      4495  TIP3      OH2             8.5275769500       -1.7134275341      -54.0747592888  TIP3      4431            0.0000000000
     21868      4495  TIP3      H1              8.6711808518       -2.6751006408      -53.9766513099  TIP3      4431            0.0000000000
     21869      4495  TIP3      H2              8.5023468395       -1.3884372056      -53.1476053055  TIP3      4431            0.0000000000
     21870      4496  TIP3      OH2            -1.5384076636       -0.3961312433      -54.8836749134  TIP3      4432            0.0000000000
     21871      4496  TIP3      H1             -1.3137537289       -1.1476681907      -55.4583164127  TIP3      4432            0.0000000000
     21872      4496  TIP3      H2             -1.6579569576       -0.8318827192      -54.0148510922  TIP3      4432            0.0000000000
     21873      4497  TIP3      OH2             3.3273665330       -4.3642939773      -55.9615079927  TIP3      4433            0.0000000000
     21874      4497  TIP3      H1              3.9893854714       -5.0837251881      -55.9221295782  TIP3      4433            0.0000000000
     21875      4497  TIP3      H2              3.1973669819       -4.2896699595      -56.9316170450  TIP3      4433            0.0000000000
     21876      4498  TIP3      OH2             3.6871081216       -2.7875784922      -53.7880882241  TIP3      4434            0.0000000000
     21877      4498  TIP3      H1              3.5048921373       -3.3013808458      -54.6133291107  TIP3      4434            0.0000000000
     21878      4498  TIP3      H2              3.1041269317       -2.0093964380      -53.8977091882  TIP3      4434            0.0000000000
     21879      4499  TIP3      OH2             3.1631753443       14.2232889691      -70.5778840519  TIP3      4435            0.0000000000
     21880      4499  TIP3      H1              4.1369348351       14.1975601700      -70.5930485343  TIP3      4435            0.0000000000
     21881      4499  TIP3      H2              2.9718767547       14.6801983024      -71.4132042669  TIP3      4435            0.0000000000
     21882      4500  TIP3      OH2            -3.4069414714        8.7028933783      -71.0528440979  TIP3      4436            0.0000000000
     21883      4500  TIP3      H1             -2.4563002914        8.8879886717      -70.9173382478  TIP3      4436            0.0000000000
     21884      4500  TIP3      H2             -3.3866074431        8.1548159686      -71.8548352217  TIP3      4436            0.0000000000
     21885      4501  TIP3      OH2            -4.5053308180       14.0628721254      -66.2251283097  TIP3      4437            0.0000000000
     21886      4501  TIP3      H1             -5.2387044272       13.5740976298      -66.6602151334  TIP3      4437            0.0000000000
     21887      4501  TIP3      H2             -4.2183258980       13.4344942216      -65.5318610467  TIP3      4437            0.0000000000
     21888      4502  TIP3      OH2            -3.6768081178       12.2318652460      -64.3187402053  TIP3      4438            0.0000000000
     21889      4502  TIP3      H1             -4.0508050107       11.3659308095      -64.1023340195  TIP3      4438            0.0000000000
     21890      4502  TIP3      H2             -3.4456420524       12.5725267467      -63.4374178384  TIP3      4438            0.0000000000
     21891      4503  TIP3      OH2            13.8667438803       13.0378397557      -61.4249849605  TIP3      4439            0.0000000000
     21892      4503  TIP3      H1             13.9088846084       13.1694617610      -60.4619237757  TIP3      4439            0.0000000000
     21893      4503  TIP3      H2             14.5677076886       13.6264921642      -61.7198926773  TIP3      4439            0.0000000000
     21894      4504  TIP3      OH2            13.4303946093       12.6169094447      -58.4757913298  TIP3      4440            0.0000000000
     21895      4504  TIP3      H1             12.9558097888       11.8531794473      -58.8633450385  TIP3      4440            0.0000000000
     21896      4504  TIP3      H2             13.8727166035       12.1724399776      -57.7364199497  TIP3      4440            0.0000000000
     21897      4505  TIP3      OH2            11.8716874500        8.3315848969      -53.7757579918  TIP3      4441            0.0000000000
     21898      4505  TIP3      H1             10.9599491263        8.3260155098      -53.4281799844  TIP3      4441            0.0000000000
     21899      4505  TIP3      H2             12.2365737928        9.1508105324      -53.3933970009  TIP3      4441            0.0000000000
     21900      4506  TIP3      OH2            13.2279524186        6.6797598798      -68.4250081554  TIP3      4442            0.0000000000
     21901      4506  TIP3      H1             14.0727371416        7.0965092615      -68.1887099039  TIP3      4442            0.0000000000
     21902      4506  TIP3      H2             13.1485683191        6.0116806808      -67.7120870640  TIP3      4442            0.0000000000
     21903      4507  TIP3      OH2            13.5231903571        4.7849912929      -66.4489463096  TIP3      4443            0.0000000000
     21904      4507  TIP3      H1             12.7736288771        4.2514587615      -66.0946765317  TIP3      4443            0.0000000000
     21905      4507  TIP3      H2             14.1270776876        4.8625535358      -65.6855710277  TIP3      4443            0.0000000000
     21906      4508  TIP3      OH2            13.3011721308        7.4282291890      -61.4878338445  TIP3      4444            0.0000000000
     21907      4508  TIP3      H1             14.0963790238        7.0349612977      -61.8866192638  TIP3      4444            0.0000000000
     21908      4508  TIP3      H2             13.4545934459        8.3802268900      -61.6602122764  TIP3      4444            0.0000000000
     21909      4509  TIP3      OH2            11.8645156530       10.3502407436      -59.2258907984  TIP3      4445            0.0000000000
     21910      4509  TIP3      H1             11.1728481052       10.7030219910      -58.6456104503  TIP3      4445            0.0000000000
     21911      4509  TIP3      H2             11.3239323094        9.9651308350      -59.9477836391  TIP3      4445            0.0000000000
     21912      4510  TIP3      OH2            13.8940046440        4.6066975186      -70.0650221889  TIP3      4446            0.0000000000
     21913      4510  TIP3      H1             13.2778675639        4.8890204949      -70.7778287724  TIP3      4446            0.0000000000
     21914      4510  TIP3      H2             13.7500443314        5.3326163395      -69.4274092860  TIP3      4446            0.0000000000
     21915      4511  TIP3      OH2            12.2800129920        1.7544837824      -71.4801497519  TIP3      4447            0.0000000000
     21916      4511  TIP3      H1             12.2754968817        2.4536405912      -72.1473476941  TIP3      4447            0.0000000000
     21917      4511  TIP3      H2             11.9214545557        0.9972203240      -71.9936202023  TIP3      4447            0.0000000000
     21918      4512  TIP3      OH2            11.3738218962        3.2460012969      -65.8856014221  TIP3      4448            0.0000000000
     21919      4512  TIP3      H1             11.2108694767        2.2957688789      -65.9824174364  TIP3      4448            0.0000000000
     21920      4512  TIP3      H2             11.0647441813        3.4140221631      -64.9753411355  TIP3      4448            0.0000000000
     21921      4513  TIP3      OH2            -3.6218900702        5.3215384756      -61.8227482576  TIP3      4449            0.0000000000
     21922      4513  TIP3      H1             -3.4672135130        5.2272787520      -62.7889324813  TIP3      4449            0.0000000000
     21923      4513  TIP3      H2             -2.7260363776        5.1128540961      -61.4879534198  TIP3      4449            0.0000000000
     21924      4514  TIP3      OH2            12.2489571613        5.1884823636      -56.1901416049  TIP3      4450            0.0000000000
     21925      4514  TIP3      H1             12.8520760172        4.4205047664      -56.0874583814  TIP3      4450            0.0000000000
     21926      4514  TIP3      H2             12.8584620130        5.9546427207      -56.2040137999  TIP3      4450            0.0000000000
     21927      4515  TIP3      OH2            13.7393274862        3.0484683161      -55.5505336553  TIP3      4451            0.0000000000
     21928      4515  TIP3      H1             12.8482085422        2.6687256676      -55.7156378377  TIP3      4451            0.0000000000
     21929      4515  TIP3      H2             14.2990356986        2.2517906877      -55.6192870035  TIP3      4451            0.0000000000
     21930      4516  TIP3      OH2            11.3577534164       -0.6846387864      -72.2070787563  TIP3      4452            0.0000000000
     21931      4516  TIP3      H1             11.9987296129       -1.2757336134      -71.7774481666  TIP3      4452            0.0000000000
     21932      4516  TIP3      H2             10.5585697788       -1.2209330307      -72.2707086656  TIP3      4452            0.0000000000
     21933      4517  TIP3      OH2            11.0229571812        0.8017974493      -67.4059148401  TIP3      4453            0.0000000000
     21934      4517  TIP3      H1             11.2932942775       -0.1457711810      -67.3586696116  TIP3      4453            0.0000000000
     21935      4517  TIP3      H2             11.8176824169        1.1960297416      -67.7888454527  TIP3      4453            0.0000000000
     21936      4518  TIP3      OH2            11.7094843063        1.2532705191      -61.9894968177  TIP3      4454            0.0000000000
     21937      4518  TIP3      H1             12.6421730895        1.5958505915      -62.0024254187  TIP3      4454            0.0000000000
     21938      4518  TIP3      H2             11.4895752680        1.5041369000      -61.0726206345  TIP3      4454            0.0000000000
     21939      4519  TIP3      OH2            11.7392978017        2.0566111243      -59.2868340569  TIP3      4455            0.0000000000
     21940      4519  TIP3      H1             10.8698982834        2.3394290835      -58.9240852959  TIP3      4455            0.0000000000
     21941      4519  TIP3      H2             12.1790731570        2.9174688986      -59.4790608785  TIP3      4455            0.0000000000
     21942      4520  TIP3      OH2            -3.9934654426        0.6238891462      -55.6478068998  TIP3      4456            0.0000000000
     21943      4520  TIP3      H1             -3.0586099635        0.3972660355      -55.4682481925  TIP3      4456            0.0000000000
     21944      4520  TIP3      H2             -4.4574563432       -0.2146452471      -55.4325947347  TIP3      4456            0.0000000000
     21945      4521  TIP3      OH2            14.0821524878       -3.8969816768      -53.9521703204  TIP3      4457            0.0000000000
     21946      4521  TIP3      H1             14.4090046204       -4.5403552924      -54.6006856030  TIP3      4457            0.0000000000
     21947      4521  TIP3      H2             14.0916222614       -3.0599730121      -54.4587342915  TIP3      4457            0.0000000000
     21948      4522  TIP3      OH2            11.6646174617       -1.8878560260      -67.3879816713  TIP3      4458            0.0000000000
     21949      4522  TIP3      H1             11.9805135476       -2.3663469180      -66.5989313804  TIP3      4458            0.0000000000
     21950      4522  TIP3      H2             11.1178828135       -2.5594623135      -67.8613929285  TIP3      4458            0.0000000000
     21951      4523  TIP3      OH2            -2.7984572601       -1.0892008768      -62.8245145184  TIP3      4459            0.0000000000
     21952      4523  TIP3      H1             -2.3515505658       -1.9306386433      -62.5984672971  TIP3      4459            0.0000000000
     21953      4523  TIP3      H2             -2.2069105204       -0.4119438401      -62.4652975810  TIP3      4459            0.0000000000
     21954      4524  TIP3      OH2            -4.5506285940        1.9199627487      -61.8049560109  TIP3      4460            0.0000000000
     21955      4524  TIP3      H1             -3.9762456039        1.6378845080      -62.5464583174  TIP3      4460            0.0000000000
     21956      4524  TIP3      H2             -4.0422950539        2.7006514060      -61.5346968696  TIP3      4460            0.0000000000
     21957      4525  TIP3      OH2            13.5669880398       -1.7534218779      -55.5830621960  TIP3      4461            0.0000000000
     21958      4525  TIP3      H1             12.6248107812       -1.4814301102      -55.5200699374  TIP3      4461            0.0000000000
     21959      4525  TIP3      H2             13.5173402521       -2.3309454447      -56.3582250858  TIP3      4461            0.0000000000
     21960      4526  TIP3      OH2            13.5480380471       -1.7941154628      -70.9362588042  TIP3      4462            0.0000000000
     21961      4526  TIP3      H1             13.9577761624       -2.5403016551      -71.3986867097  TIP3      4462            0.0000000000
     21962      4526  TIP3      H2             14.3004523925       -1.2146292508      -70.7483031330  TIP3      4462            0.0000000000
     21963      4527  TIP3      OH2            -4.1787379502       -1.8214054690      -67.7451818855  TIP3      4463            0.0000000000
     21964      4527  TIP3      H1             -5.1246949395       -1.6454159637      -67.8613070125  TIP3      4463            0.0000000000
     21965      4527  TIP3      H2             -3.7748644373       -1.3125672859      -68.4669863528  TIP3      4463            0.0000000000
     21966      4528  TIP3      OH2            10.5764296188       13.1080656869      -65.7674655463  TIP3      4464            0.0000000000
     21967      4528  TIP3      H1             11.2676999180       12.8290556257      -66.4007321060  TIP3      4464            0.0000000000
     21968      4528  TIP3      H2             11.0780665595       13.6167849192      -65.1076312190  TIP3      4464            0.0000000000
     21969      4529  TIP3      OH2            -4.2011997960       -3.2006053413      -59.4270403909  TIP3      4465            0.0000000000
     21970      4529  TIP3      H1             -4.8792451600       -3.3867328142      -58.7548341957  TIP3      4465            0.0000000000
     21971      4529  TIP3      H2             -4.6402934906       -2.5305669419      -59.9786692196  TIP3      4465            0.0000000000
     21972      4530  TIP3      OH2            -1.9472001647        9.9891491997      -55.2871873771  TIP3      4466            0.0000000000
     21973      4530  TIP3      H1             -2.7837666346       10.2354630939      -55.7178832583  TIP3      4466            0.0000000000
     21974      4530  TIP3      H2             -2.2131278796        9.9136560951      -54.3681435764  TIP3      4466            0.0000000000
     21975      4531  TIP3      OH2             0.9267125103       11.0333987108      -58.9929901181  TIP3      4467            0.0000000000
     21976      4531  TIP3      H1              0.6529183904       11.9328802560      -59.2395949212  TIP3      4467            0.0000000000
     21977      4531  TIP3      H2              1.8597786188       11.0910584602      -59.2838098408  TIP3      4467            0.0000000000
     21978      4532  TIP3      OH2             5.2442117183       12.4471837563      -56.1122036339  TIP3      4468            0.0000000000
     21979      4532  TIP3      H1              5.3597766440       12.0929365518      -55.2032366423  TIP3      4468            0.0000000000
     21980      4532  TIP3      H2              6.1522028603       12.7658359671      -56.3271605707  TIP3      4468            0.0000000000
     21981      4533  TIP3      OH2             7.5308045576       13.7178393540      -56.7729632907  TIP3      4469            0.0000000000
     21982      4533  TIP3      H1              8.2786460671       13.1583021117      -57.0155570634  TIP3      4469            0.0000000000
     21983      4533  TIP3      H2              7.8942700116       14.1722750415      -55.9824321901  TIP3      4469            0.0000000000
     21984      4534  TIP3      OH2            12.5838024591       -3.6677829882      -57.6949932091  TIP3      4470            0.0000000000
     21985      4534  TIP3      H1             11.7238990547       -3.4004984086      -58.0552091564  TIP3      4470            0.0000000000
     21986      4534  TIP3      H2             12.7134062282       -4.5400243344      -58.1387948144  TIP3      4470            0.0000000000
     21987      4535  TIP3      OH2            -1.6510599745       14.2582390582      -59.0287216513  TIP3      4471            0.0000000000
     21988      4535  TIP3      H1             -2.3837798003       14.7754786859      -59.4020519139  TIP3      4471            0.0000000000
     21989      4535  TIP3      H2             -1.9278992242       14.0899684233      -58.1163635660  TIP3      4471            0.0000000000
     21990      4536  TIP3      OH2             0.8141411224       13.8240315578      -59.9475600300  TIP3      4472            0.0000000000
     21991      4536  TIP3      H1             -0.0719892183       14.0068338496      -59.5526207035  TIP3      4472            0.0000000000
     21992      4536  TIP3      H2              0.7787568491       14.4322359763      -60.7054213867  TIP3      4472            0.0000000000
     21993      4537  TIP3      OH2             5.5319381008       13.7411597337      -60.7797373313  TIP3      4473            0.0000000000
     21994      4537  TIP3      H1              5.0616764099       14.3036865236      -61.4139813063  TIP3      4473            0.0000000000
     21995      4537  TIP3      H2              5.6596680182       14.3646838220      -60.0265229136  TIP3      4473            0.0000000000
     21996      4538  TIP3      OH2             7.7792194450       12.5065055229      -59.6784463861  TIP3      4474            0.0000000000
     21997      4538  TIP3      H1              6.9690544382       12.8282415693      -60.1101616026  TIP3      4474            0.0000000000
     21998      4538  TIP3      H2              8.3234004145       13.3053397457      -59.7786899113  TIP3      4474            0.0000000000
     21999      4539  TIP3      OH2            10.3581269821       14.0740458763      -59.5367353962  TIP3      4475            0.0000000000
     22000      4539  TIP3      H1             10.3769490386       15.0402493222      -59.7464562710  TIP3      4475            0.0000000000
     22001      4539  TIP3      H2             10.6101012634       13.7039806027      -60.4079580879  TIP3      4475            0.0000000000
     22002      4540  TIP3      OH2            -2.1571021245       12.9039599310      -62.0576455180  TIP3      4476            0.0000000000
     22003      4540  TIP3      H1             -2.2622019412       12.4280871428      -61.2073960505  TIP3      4476            0.0000000000
     22004      4540  TIP3      H2             -1.3498848629       12.5029903857      -62.4396962970  TIP3      4476            0.0000000000
     22005      4541  TIP3      OH2            -0.0962549815       11.6124994170      -63.4051140496  TIP3      4477            0.0000000000
     22006      4541  TIP3      H1             -0.2444335479       10.6822951990      -63.1502980259  TIP3      4477            0.0000000000
     22007      4541  TIP3      H2              0.7613412188       11.7899949792      -62.9683000689  TIP3      4477            0.0000000000
     22008      4542  TIP3      OH2             2.5154286333       12.1044594444      -62.5209432684  TIP3      4478            0.0000000000
     22009      4542  TIP3      H1              2.6512662281       11.1727665749      -62.7753414496  TIP3      4478            0.0000000000
     22010      4542  TIP3      H2              2.5536331374       12.0522103349      -61.5547317894  TIP3      4478            0.0000000000
     22011      4543  TIP3      OH2             6.0261454650       -2.2542931078      -63.3614567442  TIP3      4479            0.0000000000
     22012      4543  TIP3      H1              5.2889419985       -2.8402373951      -63.0938162552  TIP3      4479            0.0000000000
     22013      4543  TIP3      H2              6.4557991050       -2.8146849155      -64.0156420527  TIP3      4479            0.0000000000
     22014      4544  TIP3      OH2            11.0472299535       -4.4124574575      -63.3789256091  TIP3      4480            0.0000000000
     22015      4544  TIP3      H1             11.6591870192       -3.9929293079      -64.0101976588  TIP3      4480            0.0000000000
     22016      4544  TIP3      H2             10.1423507361       -4.0725028423      -63.6141621813  TIP3      4480            0.0000000000
     22017      4545  TIP3      OH2            12.8528401598       -2.9947608236      -65.1613386926  TIP3      4481            0.0000000000
     22018      4545  TIP3      H1             13.5038212308       -3.6085142140      -65.5994171671  TIP3      4481            0.0000000000
     22019      4545  TIP3      H2             13.4076703510       -2.1700438749      -65.1460401535  TIP3      4481            0.0000000000
     22020      4546  TIP3      OH2            -1.7025393936       -3.6456187458      -65.4751490869  TIP3      4482            0.0000000000
     22021      4546  TIP3      H1             -2.4681680418       -3.8024850717      -66.0535536338  TIP3      4482            0.0000000000
     22022      4546  TIP3      H2             -1.2173084341       -4.4961877241      -65.5915309243  TIP3      4482            0.0000000000
     22023      4547  TIP3      OH2            -3.0093128296       -3.8628740619      -69.9896723455  TIP3      4483            0.0000000000
     22024      4547  TIP3      H1             -2.3874915459       -3.2086491665      -70.3686319983  TIP3      4483            0.0000000000
     22025      4547  TIP3      H2             -3.4395655256       -3.3477856298      -69.2889594746  TIP3      4483            0.0000000000
     22026      4548  TIP3      OH2             2.7728919355       -3.5151388664      -65.7111097894  TIP3      4484            0.0000000000
     22027      4548  TIP3      H1              3.7154289211       -3.3863660895      -65.8511436390  TIP3      4484            0.0000000000
     22028      4548  TIP3      H2              2.7625362019       -4.0236632066      -64.8944971359  TIP3      4484            0.0000000000
     22029      4549  TIP3      OH2             8.6039521029       -3.7038201341      -64.1920323530  TIP3      4485            0.0000000000
     22030      4549  TIP3      H1              8.3936720611       -3.5517866407      -65.1259434525  TIP3      4485            0.0000000000
     22031      4549  TIP3      H2              8.1189900016       -4.5598605365      -64.0272029074  TIP3      4485            0.0000000000
     22032      4550  TIP3      OH2             9.7704778885       -3.6345884407      -68.4179734542  TIP3      4486            0.0000000000
     22033      4550  TIP3      H1              9.0096640780       -3.0883538728      -68.6505121559  TIP3      4486            0.0000000000
     22034      4550  TIP3      H2              9.3716595178       -4.5142932464      -68.2323755151  TIP3      4486            0.0000000000
     22035      4551  TIP3      OH2            -3.0081569653       12.0778485815      -68.7508277097  TIP3      4487            0.0000000000
     22036      4551  TIP3      H1             -3.6424556155       12.0706485037      -69.4974284633  TIP3      4487            0.0000000000
     22037      4551  TIP3      H2             -2.9865783698       13.0284926415      -68.5969695841  TIP3      4487            0.0000000000
     22038      4552  TIP3      OH2            -1.1071243956       -2.1516009519      -71.2464769826  TIP3      4488            0.0000000000
     22039      4552  TIP3      H1             -0.4946149996       -2.5796173911      -71.8476802342  TIP3      4488            0.0000000000
     22040      4552  TIP3      H2             -0.4733348063       -1.6998094511      -70.6460604425  TIP3      4488            0.0000000000
     22041      4553  TIP3      OH2             3.9273994713       -1.7488239993      -68.8905371919  TIP3      4489            0.0000000000
     22042      4553  TIP3      H1              4.1826490157       -2.2972463991      -68.1327932648  TIP3      4489            0.0000000000
     22043      4553  TIP3      H2              4.0166932973       -0.8615837124      -68.4734585933  TIP3      4489            0.0000000000
     22044      4554  TIP3      OH2             5.8351081557       13.4429925504      -70.5650873529  TIP3      4490            0.0000000000
     22045      4554  TIP3      H1              6.8107087112       13.5607363891      -70.6119089589  TIP3      4490            0.0000000000
     22046      4554  TIP3      H2              5.7174117552       12.8279336476      -71.3130833000  TIP3      4490            0.0000000000
     22047      4555  TIP3      OH2            12.5518053261       12.8727458322      -67.7397970912  TIP3      4491            0.0000000000
     22048      4555  TIP3      H1             12.3627111901       12.0839900879      -68.3010337382  TIP3      4491            0.0000000000
     22049      4555  TIP3      H2             12.4558471457       13.6045387214      -68.3816738444  TIP3      4491            0.0000000000
     22050      4556  TIP3      OH2            -1.8055387441       -3.0756062531      -56.0913035305  TIP3      4492            0.0000000000
     22051      4556  TIP3      H1             -2.2296118205       -3.8828692402      -55.7307954515  TIP3      4492            0.0000000000
     22052      4556  TIP3      H2             -0.9111159423       -3.1395925094      -55.6787372265  TIP3      4492            0.0000000000
     22053      4557  TIP3      OH2             0.1851198417       -3.6797906915      -54.4040706207  TIP3      4493            0.0000000000
     22054      4557  TIP3      H1              1.0694587720       -4.0170997215      -54.6434622177  TIP3      4493            0.0000000000
     22055      4557  TIP3      H2             -0.1901904245       -4.4982474965      -54.0268684540  TIP3      4493            0.0000000000
     22056      4558  TIP3      OH2            -1.3219461890       12.8818799542      -71.6738492660  TIP3      4494            0.0000000000
     22057      4558  TIP3      H1             -1.4266466537       13.3420095755      -70.8321617782  TIP3      4494            0.0000000000
     22058      4558  TIP3      H2             -0.4298906584       12.5078274630      -71.6187190167  TIP3      4494            0.0000000000
     22059      4559  TIP3      OH2             8.6141522686       -4.4316832158      -54.2646212568  TIP3      4495            0.0000000000
     22060      4559  TIP3      H1              8.7069298773       -4.8750477244      -53.3976924910  TIP3      4495            0.0000000000
     22061      4559  TIP3      H2              9.5333501181       -4.4506141428      -54.5994546223  TIP3      4495            0.0000000000
     22062      4560  TIP3      OH2            11.8131742899       11.6474829126      -55.6836952702  TIP3      4496            0.0000000000
     22063      4560  TIP3      H1             11.0171335522       11.5224532638      -56.2448936645  TIP3      4496            0.0000000000
     22064      4560  TIP3      H2             11.6913267292       12.5912251842      -55.4601244078  TIP3      4496            0.0000000000
     22065      4561  TIP3      OH2            17.4296218404        4.4400061111      -60.6338833794  TIP3      4497            0.0000000000
     22066      4561  TIP3      H1             17.5341639101        3.7438604171      -59.9562561971  TIP3      4497            0.0000000000
     22067      4561  TIP3      H2             18.1790536261        5.0095872234      -60.4071023648  TIP3      4497            0.0000000000
     22068      4562  TIP3      OH2            18.3865428721        8.9001025280      -62.1623160429  TIP3      4498            0.0000000000
     22069      4562  TIP3      H1             18.0763157707        8.0215144535      -62.4555320648  TIP3      4498            0.0000000000
     22070      4562  TIP3      H2             19.3439570722        8.7121590813      -62.1228949462  TIP3      4498            0.0000000000
     22071      4563  TIP3      OH2            15.0175091288        2.4319618745      -66.6451753510  TIP3      4499            0.0000000000
     22072      4563  TIP3      H1             14.6017222315        3.3129384436      -66.7057279273  TIP3      4499            0.0000000000
     22073      4563  TIP3      H2             14.4645944086        1.9052597878      -67.2362400973  TIP3      4499            0.0000000000
     22074      4564  TIP3      OH2            15.7612681084        4.6805376543      -64.4582854741  TIP3      4500            0.0000000000
     22075      4564  TIP3      H1             16.0522914918        3.8387410258      -64.0548936697  TIP3      4500            0.0000000000
     22076      4564  TIP3      H2             16.4111199040        4.8216586293      -65.1615981804  TIP3      4500            0.0000000000
     22077      4565  TIP3      OH2            19.5145504427       -0.2666973666      -64.1833151369  TIP3      4501            0.0000000000
     22078      4565  TIP3      H1             19.9185240948        0.4892516550      -64.6594357351  TIP3      4501            0.0000000000
     22079      4565  TIP3      H2             19.2794471976       -0.8535835387      -64.9311414550  TIP3      4501            0.0000000000
     22080      4566  TIP3      OH2            16.3994282276        2.1368732065      -63.4605489452  TIP3      4502            0.0000000000
     22081      4566  TIP3      H1             17.0698629075        1.6052365969      -62.9942348502  TIP3      4502            0.0000000000
     22082      4566  TIP3      H2             16.5274189655        1.8123051515      -64.3652510228  TIP3      4502            0.0000000000
     22083      4567  TIP3      OH2            21.5487462254        3.6990002301      -64.1144832453  TIP3      4503            0.0000000000
     22084      4567  TIP3      H1             22.2305590151        3.1136021103      -63.7331145708  TIP3      4503            0.0000000000
     22085      4567  TIP3      H2             21.0050753154        3.0478022563      -64.5971062596  TIP3      4503            0.0000000000
     22086      4568  TIP3      OH2            18.6421320508       -1.3635609647      -60.1386742623  TIP3      4504            0.0000000000
     22087      4568  TIP3      H1             18.3842715435       -0.7726039724      -60.8835904774  TIP3      4504            0.0000000000
     22088      4568  TIP3      H2             17.9658986229       -1.1299953251      -59.4576349956  TIP3      4504            0.0000000000
     22089      4569  TIP3      OH2            21.2087932224        6.2838103855      -59.9019011852  TIP3      4505            0.0000000000
     22090      4569  TIP3      H1             20.4486280156        6.8676958947      -59.6639599793  TIP3      4505            0.0000000000
     22091      4569  TIP3      H2             21.8356386035        6.9376704849      -60.2223279768  TIP3      4505            0.0000000000
     22092      4570  TIP3      OH2            18.2421419135        0.4825832026      -62.0648567138  TIP3      4506            0.0000000000
     22093      4570  TIP3      H1             18.8868068029        1.1688199466      -61.7821458357  TIP3      4506            0.0000000000
     22094      4570  TIP3      H2             18.7132533786        0.1041461096      -62.8562826873  TIP3      4506            0.0000000000
     22095      4571  TIP3      OH2            19.6434033668        8.2807612458      -59.0961306309  TIP3      4507            0.0000000000
     22096      4571  TIP3      H1             19.5900358060        9.1991302795      -59.4161117188  TIP3      4507            0.0000000000
     22097      4571  TIP3      H2             18.7621440902        8.1888476721      -58.6447324921  TIP3      4507            0.0000000000
     22098      4572  TIP3      OH2            15.7015046133        7.8509668629      -68.2579116101  TIP3      4508            0.0000000000
     22099      4572  TIP3      H1             15.4703434325        8.2020158092      -69.1395415586  TIP3      4508            0.0000000000
     22100      4572  TIP3      H2             15.8013972874        8.6761279982      -67.7454844262  TIP3      4508            0.0000000000
     22101      4573  TIP3      OH2            22.5573414050       -4.0552530034      -62.7526858778  TIP3      4509            0.0000000000
     22102      4573  TIP3      H1             22.4749714753       -5.0125223419      -62.7050152458  TIP3      4509            0.0000000000
     22103      4573  TIP3      H2             21.7210926964       -3.7389965213      -62.3737255882  TIP3      4509            0.0000000000
     22104      4574  TIP3      OH2            19.9381345056        5.6055036713      -65.3424871241  TIP3      4510            0.0000000000
     22105      4574  TIP3      H1             19.6754952961        5.2341052135      -66.2135832342  TIP3      4510            0.0000000000
     22106      4574  TIP3      H2             20.5735488496        4.9383403357      -64.9910028203  TIP3      4510            0.0000000000
     22107      4575  TIP3      OH2            21.2230184482        8.9283540149      -62.6049412666  TIP3      4511            0.0000000000
     22108      4575  TIP3      H1             21.2531654991        8.5092694255      -63.4789231545  TIP3      4511            0.0000000000
     22109      4575  TIP3      H2             22.1283759159        8.7563034435      -62.2861549368  TIP3      4511            0.0000000000
     22110      4576  TIP3      OH2            20.2885911633        4.4016555841      -61.6241286304  TIP3      4512            0.0000000000
     22111      4576  TIP3      H1             20.8688524157        4.4110641251      -62.4132833913  TIP3      4512            0.0000000000
     22112      4576  TIP3      H2             20.7462011322        5.0480043526      -61.0424655563  TIP3      4512            0.0000000000
     22113      4577  TIP3      OH2            21.2213136238        8.6883745640      -56.9529148447  TIP3      4513            0.0000000000
     22114      4577  TIP3      H1             20.8955948115        9.4954419836      -56.4942822386  TIP3      4513            0.0000000000
     22115      4577  TIP3      H2             20.6001680650        8.5728957368      -57.7031738964  TIP3      4513            0.0000000000
     22116      4578  TIP3      OH2            18.2280818038        4.9553143291      -57.8485560737  TIP3      4514            0.0000000000
     22117      4578  TIP3      H1             18.2797792634        5.6246440831      -57.1438852137  TIP3      4514            0.0000000000
     22118      4578  TIP3      H2             17.2737722394        5.0122213806      -58.0222690320  TIP3      4514            0.0000000000
     22119      4579  TIP3      OH2            19.5466953718       10.8004697021      -56.2374815150  TIP3      4515            0.0000000000
     22120      4579  TIP3      H1             19.4363734505       10.7119076533      -57.2067135117  TIP3      4515            0.0000000000
     22121      4579  TIP3      H2             18.6209386040       10.6832817972      -55.9456799621  TIP3      4515            0.0000000000
     22122      4580  TIP3      OH2            18.9381409817        4.6092776035      -67.7705779146  TIP3      4516            0.0000000000
     22123      4580  TIP3      H1             18.6483412862        5.4208080714      -68.2315376234  TIP3      4516            0.0000000000
     22124      4580  TIP3      H2             18.2388372959        3.9773691344      -67.9586178329  TIP3      4516            0.0000000000
     22125      4581  TIP3      OH2            15.0199818885        7.0656456679      -58.7901090887  TIP3      4517            0.0000000000
     22126      4581  TIP3      H1             14.5916349012        6.9880417165      -59.6609058369  TIP3      4517            0.0000000000
     22127      4581  TIP3      H2             15.1391537855        6.1180776008      -58.5819259466  TIP3      4517            0.0000000000
     22128      4582  TIP3      OH2            14.7968695044        9.8034046047      -62.0408174388  TIP3      4518            0.0000000000
     22129      4582  TIP3      H1             15.7572859335        9.6970549547      -62.0869102317  TIP3      4518            0.0000000000
     22130      4582  TIP3      H2             14.7164628281       10.6326899146      -61.5528979426  TIP3      4518            0.0000000000
     22131      4583  TIP3      OH2            18.0779636013       12.6758619143      -65.8348918957  TIP3      4519            0.0000000000
     22132      4583  TIP3      H1             18.2137048367       12.2533334923      -64.9572641917  TIP3      4519            0.0000000000
     22133      4583  TIP3      H2             17.2290902267       12.2705192188      -66.0854826682  TIP3      4519            0.0000000000
     22134      4584  TIP3      OH2            17.3165738895        8.3922099255      -57.8854007974  TIP3      4520            0.0000000000
     22135      4584  TIP3      H1             17.5374083562        8.0528516956      -56.9894266883  TIP3      4520            0.0000000000
     22136      4584  TIP3      H2             16.4469760056        7.9909754098      -58.0852964672  TIP3      4520            0.0000000000
     22137      4585  TIP3      OH2            20.0118588037       -3.0898047104      -61.9622699257  TIP3      4521            0.0000000000
     22138      4585  TIP3      H1             19.0973769457       -3.2563709764      -62.2794284418  TIP3      4521            0.0000000000
     22139      4585  TIP3      H2             19.8639920422       -2.2876791815      -61.4289383463  TIP3      4521            0.0000000000
     22140      4586  TIP3      OH2            20.0916623933        1.8300261265      -60.6099835700  TIP3      4522            0.0000000000
     22141      4586  TIP3      H1             19.3240961743        1.8420009340      -60.0131493982  TIP3      4522            0.0000000000
     22142      4586  TIP3      H2             20.0325239989        2.7079035451      -61.0403813755  TIP3      4522            0.0000000000
     22143      4587  TIP3      OH2            20.0529484444        1.9309531403      -65.8503134243  TIP3      4523            0.0000000000
     22144      4587  TIP3      H1             19.1053922651        1.6964424003      -65.9307673085  TIP3      4523            0.0000000000
     22145      4587  TIP3      H2             20.4059729239        1.6257711419      -66.7018236374  TIP3      4523            0.0000000000
     22146      4588  TIP3      OH2            17.6970440789        2.0795596236      -59.0090153502  TIP3      4524            0.0000000000
     22147      4588  TIP3      H1             17.8484006676        2.4787317283      -58.1388241969  TIP3      4524            0.0000000000
     22148      4588  TIP3      H2             17.3112607501        1.2236671944      -58.7698279672  TIP3      4524            0.0000000000
     22149      4589  TIP3      OH2            21.0530562635       -0.1209104602      -71.7629130844  TIP3      4525            0.0000000000
     22150      4589  TIP3      H1             20.7435605734       -0.9530708876      -71.3632936555  TIP3      4525            0.0000000000
     22151      4589  TIP3      H2             20.6177766222       -0.1657228908      -72.6237987001  TIP3      4525            0.0000000000
     22152      4590  TIP3      OH2            14.3648463259       -0.9089973421      -64.9477429242  TIP3      4526            0.0000000000
     22153      4590  TIP3      H1             15.1060771405       -0.8579366568      -64.3025940264  TIP3      4526            0.0000000000
     22154      4590  TIP3      H2             14.8278918406       -1.1399184300      -65.7779856168  TIP3      4526            0.0000000000
     22155      4591  TIP3      OH2            15.5697312911       -0.1461517050      -69.7534466400  TIP3      4527            0.0000000000
     22156      4591  TIP3      H1             16.2119061641        0.4665929060      -70.1697824415  TIP3      4527            0.0000000000
     22157      4591  TIP3      H2             14.9783230853        0.5353983297      -69.3515738646  TIP3      4527            0.0000000000
     22158      4592  TIP3      OH2            22.0808424791       -0.2297362363      -64.6485393376  TIP3      4528            0.0000000000
     22159      4592  TIP3      H1             21.2985725317       -0.6084228214      -64.2193099815  TIP3      4528            0.0000000000
     22160      4592  TIP3      H2             22.7870990688       -0.4366025829      -64.0192510887  TIP3      4528            0.0000000000
     22161      4593  TIP3      OH2            17.3935459278        1.0496953601      -65.9180232279  TIP3      4529            0.0000000000
     22162      4593  TIP3      H1             16.5327410336        1.2408303230      -66.3421568005  TIP3      4529            0.0000000000
     22163      4593  TIP3      H2             17.6683802528        0.2096335854      -66.3324909921  TIP3      4529            0.0000000000
     22164      4594  TIP3      OH2            21.1079188044        1.0831290782      -68.3620816965  TIP3      4530            0.0000000000
     22165      4594  TIP3      H1             21.9982776197        1.3514030294      -68.1471174506  TIP3      4530            0.0000000000
     22166      4594  TIP3      H2             20.8153646128        1.7402327849      -69.0268878194  TIP3      4530            0.0000000000
     22167      4595  TIP3      OH2            19.7261519220        2.3432222038      -70.7120458150  TIP3      4531            0.0000000000
     22168      4595  TIP3      H1             19.2203192376        1.9198870215      -71.4161886906  TIP3      4531            0.0000000000
     22169      4595  TIP3      H2             20.5911212526        2.4676713958      -71.1433217546  TIP3      4531            0.0000000000
     22170      4596  TIP3      OH2            17.8821801940        6.8699099782      -55.6722012057  TIP3      4532            0.0000000000
     22171      4596  TIP3      H1             18.6243996489        7.1133180832      -55.0891186532  TIP3      4532            0.0000000000
     22172      4596  TIP3      H2             17.1324482960        6.8974702052      -55.0407116645  TIP3      4532            0.0000000000
     22173      4597  TIP3      OH2            18.9063042086       -1.5768835916      -66.4441352440  TIP3      4533            0.0000000000
     22174      4597  TIP3      H1             18.5464153489       -2.4847617436      -66.4358790423  TIP3      4533            0.0000000000
     22175      4597  TIP3      H2             19.6758033118       -1.6717010694      -67.0181516236  TIP3      4533            0.0000000000
     22176      4598  TIP3      OH2            22.3876352147        0.4092872032      -60.1890299898  TIP3      4534            0.0000000000
     22177      4598  TIP3      H1             21.7423293583        1.0717250632      -60.5185925930  TIP3      4534            0.0000000000
     22178      4598  TIP3      H2             23.0756615528        0.9855084915      -59.8779576018  TIP3      4534            0.0000000000
     22179      4599  TIP3      OH2            22.9694222593        6.7507072617      -68.8599560815  TIP3      4535            0.0000000000
     22180      4599  TIP3      H1             22.1399485524        6.2714268808      -69.0493778574  TIP3      4535            0.0000000000
     22181      4599  TIP3      H2             22.9147790626        6.9317676893      -67.9087023698  TIP3      4535            0.0000000000
     22182      4600  TIP3      OH2            18.2644024469        6.2190095806      -62.9865044467  TIP3      4536            0.0000000000
     22183      4600  TIP3      H1             18.9055522146        6.1172827423      -63.7119967498  TIP3      4536            0.0000000000
     22184      4600  TIP3      H2             18.3044644288        5.3517599066      -62.5471485563  TIP3      4536            0.0000000000
     22185      4601  TIP3      OH2            15.2252527404        4.6053742030      -57.7394439363  TIP3      4537            0.0000000000
     22186      4601  TIP3      H1             15.3700371354        4.1546869288      -56.8834953121  TIP3      4537            0.0000000000
     22187      4601  TIP3      H2             14.6001970483        4.0157816607      -58.1955462341  TIP3      4537            0.0000000000
     22188      4602  TIP3      OH2            22.3492158211        4.2265952930      -55.5986167057  TIP3      4538            0.0000000000
     22189      4602  TIP3      H1             21.8539338526        3.8352955285      -56.3349000277  TIP3      4538            0.0000000000
     22190      4602  TIP3      H2             23.1615160009        3.7075511474      -55.5788861720  TIP3      4538            0.0000000000
     22191      4603  TIP3      OH2            20.5867185321        9.7038694935      -65.5299817350  TIP3      4539            0.0000000000
     22192      4603  TIP3      H1             21.0843742627       10.4729899223      -65.8465298747  TIP3      4539            0.0000000000
     22193      4603  TIP3      H2             19.7096219086        9.8977636507      -65.8861095990  TIP3      4539            0.0000000000
     22194      4604  TIP3      OH2            16.3648559480        4.5417503817      -71.1565537937  TIP3      4540            0.0000000000
     22195      4604  TIP3      H1             16.9510925977        5.1624606924      -70.6783032671  TIP3      4540            0.0000000000
     22196      4604  TIP3      H2             15.4877951310        4.7809749380      -70.7913350647  TIP3      4540            0.0000000000
     22197      4605  TIP3      OH2            22.0039142694        7.3357310586      -66.1064562713  TIP3      4541            0.0000000000
     22198      4605  TIP3      H1             21.6826901831        8.2519395256      -66.0160240140  TIP3      4541            0.0000000000
     22199      4605  TIP3      H2             21.3015108392        6.8361539196      -65.6511654310  TIP3      4541            0.0000000000
     22200      4606  TIP3      OH2            22.4779973343       11.4947804176      -59.7404110434  TIP3      4542            0.0000000000
     22201      4606  TIP3      H1             22.8978771654       12.3473984999      -59.9000603691  TIP3      4542            0.0000000000
     22202      4606  TIP3      H2             23.0377142110       11.1268485238      -59.0436144960  TIP3      4542            0.0000000000
     22203      4607  TIP3      OH2            20.7322265801       12.3759095510      -66.5792049242  TIP3      4543            0.0000000000
     22204      4607  TIP3      H1             19.7532529265       12.4279422551      -66.4452096593  TIP3      4543            0.0000000000
     22205      4607  TIP3      H2             20.9838755485       13.1902139071      -66.1264426495  TIP3      4543            0.0000000000
     22206      4608  TIP3      OH2            16.8508461772       -0.6450168739      -58.1814740080  TIP3      4544            0.0000000000
     22207      4608  TIP3      H1             15.9445474461       -0.3032462645      -58.1895879792  TIP3      4544            0.0000000000
     22208      4608  TIP3      H2             16.7716175714       -1.4939310900      -57.7194915771  TIP3      4544            0.0000000000
     22209      4609  TIP3      OH2            16.4963240600       11.1029666188      -59.7700964862  TIP3      4545            0.0000000000
     22210      4609  TIP3      H1             16.8450240377       10.2014793473      -59.7603704831  TIP3      4545            0.0000000000
     22211      4609  TIP3      H2             16.7519800768       11.4198193510      -58.8976945512  TIP3      4545            0.0000000000
     22212      4610  TIP3      OH2            21.2487594039        9.2061885267      -70.0390070050  TIP3      4546            0.0000000000
     22213      4610  TIP3      H1             21.5074809984        8.6562004511      -69.2927952301  TIP3      4546            0.0000000000
     22214      4610  TIP3      H2             21.3289245799       10.1345244822      -69.7369104529  TIP3      4546            0.0000000000
     22215      4611  TIP3      OH2            17.7341082729        6.4458562473      -69.6658737297  TIP3      4547            0.0000000000
     22216      4611  TIP3      H1             17.0925768770        6.8576422218      -69.0434113718  TIP3      4547            0.0000000000
     22217      4611  TIP3      H2             18.3503782577        7.1900939497      -69.8204350753  TIP3      4547            0.0000000000
     22218      4612  TIP3      OH2            21.3092961380       11.8945896994      -69.3374429053  TIP3      4548            0.0000000000
     22219      4612  TIP3      H1             21.5254144766       12.7045039120      -69.8513788296  TIP3      4548            0.0000000000
     22220      4612  TIP3      H2             21.1326534543       12.2323665164      -68.4403559924  TIP3      4548            0.0000000000
     22221      4613  TIP3      OH2            19.8656141899       -1.3819787184      -69.6228153985  TIP3      4549            0.0000000000
     22222      4613  TIP3      H1             19.9597130097       -0.4623401294      -69.3322574446  TIP3      4549            0.0000000000
     22223      4613  TIP3      H2             20.8128211442       -1.6346683411      -69.5204033771  TIP3      4549            0.0000000000
     22224      4614  TIP3      OH2            18.3893396816        9.0146810827      -70.5839189866  TIP3      4550            0.0000000000
     22225      4614  TIP3      H1             19.0430668482        9.6696575064      -70.3202317699  TIP3      4550            0.0000000000
     22226      4614  TIP3      H2             18.9273005137        8.6201151384      -71.3110267673  TIP3      4550            0.0000000000
     22227      4615  TIP3      OH2            16.6718138914        1.7564937191      -71.3752751321  TIP3      4551            0.0000000000
     22228      4615  TIP3      H1             16.6565934225        2.7307003273      -71.2693227329  TIP3      4551            0.0000000000
     22229      4615  TIP3      H2             15.8277857168        1.6015778209      -71.8169898080  TIP3      4551            0.0000000000
     22230      4616  TIP3      OH2            17.4211967059       -3.4906526318      -62.7428778623  TIP3      4552            0.0000000000
     22231      4616  TIP3      H1             17.3567280912       -3.4878533362      -63.7264061980  TIP3      4552            0.0000000000
     22232      4616  TIP3      H2             17.0949602104       -4.3911070039      -62.5346672604  TIP3      4552            0.0000000000
     22233      4617  TIP3      OH2            16.4394343142       10.4164227509      -66.6551991221  TIP3      4553            0.0000000000
     22234      4617  TIP3      H1             15.5677700218       10.8316635216      -66.7134749141  TIP3      4553            0.0000000000
     22235      4617  TIP3      H2             16.8767137090       10.8694263363      -67.3883028743  TIP3      4553            0.0000000000
     22236      4618  TIP3      OH2            15.6063175391       13.0810089719      -55.3753881362  TIP3      4554            0.0000000000
     22237      4618  TIP3      H1             16.2425616146       12.9031941582      -54.6543654396  TIP3      4554            0.0000000000
     22238      4618  TIP3      H2             15.2441771304       12.1917400597      -55.5474328464  TIP3      4554            0.0000000000
     22239      4619  TIP3      OH2            20.3421956213       11.9967806900      -53.7828130639  TIP3      4555            0.0000000000
     22240      4619  TIP3      H1             21.1230856412       11.5195962315      -53.4432507374  TIP3      4555            0.0000000000
     22241      4619  TIP3      H2             20.2851604278       11.6781060816      -54.7056979848  TIP3      4555            0.0000000000
     22242      4620  TIP3      OH2            15.5135582889        6.8271588819      -54.3470319166  TIP3      4556            0.0000000000
     22243      4620  TIP3      H1             15.6911009213        5.9212803172      -54.6557214266  TIP3      4556            0.0000000000
     22244      4620  TIP3      H2             14.8057773867        7.0953848476      -54.9580325163  TIP3      4556            0.0000000000
     22245      4621  TIP3      OH2            19.9759249945        7.0208671452      -72.0415573810  TIP3      4557            0.0000000000
     22246      4621  TIP3      H1             20.1249060222        6.1768313427      -71.6098112699  TIP3      4557            0.0000000000
     22247      4621  TIP3      H2             20.5716223090        7.0076608672      -72.8062086852  TIP3      4557            0.0000000000
     22248      4622  TIP3      OH2            22.2185762310        6.8727476792      -54.9826247616  TIP3      4558            0.0000000000
     22249      4622  TIP3      H1             21.8722458346        7.2158243353      -55.8347707239  TIP3      4558            0.0000000000
     22250      4622  TIP3      H2             22.2993371394        5.9004980283      -55.1531661000  TIP3      4558            0.0000000000
     22251      4623  TIP3      OH2            16.4891158248        4.0769067004      -54.9781000926  TIP3      4559            0.0000000000
     22252      4623  TIP3      H1             16.9148111817        3.2169517975      -55.0592122498  TIP3      4559            0.0000000000
     22253      4623  TIP3      H2             16.2657282521        4.0949033216      -54.0347836850  TIP3      4559            0.0000000000
     22254      4624  TIP3      OH2            21.0372550240        5.2052330356      -69.8993876839  TIP3      4560            0.0000000000
     22255      4624  TIP3      H1             20.4836433747        4.6800696659      -69.3038844649  TIP3      4560            0.0000000000
     22256      4624  TIP3      H2             21.3696690592        4.5414035762      -70.5382508488  TIP3      4560            0.0000000000
     22257      4625  TIP3      OH2            20.3359482713        3.0217986807      -57.6243557873  TIP3      4561            0.0000000000
     22258      4625  TIP3      H1             19.7113832630        3.7292676227      -57.4070420155  TIP3      4561            0.0000000000
     22259      4625  TIP3      H2             20.7469429901        3.3855130263      -58.4307079021  TIP3      4561            0.0000000000
     22260      4626  TIP3      OH2            22.1440532731        3.3049150446      -71.5073705823  TIP3      4562            0.0000000000
     22261      4626  TIP3      H1             21.9300604097        3.2913960468      -72.4653717279  TIP3      4562            0.0000000000
     22262      4626  TIP3      H2             23.0784125483        3.4962055467      -71.6511293745  TIP3      4562            0.0000000000
     22263      4627  TIP3      OH2            20.8227362780        0.3620542486      -56.6484524036  TIP3      4563            0.0000000000
     22264      4627  TIP3      H1             20.9028232044       -0.3408228514      -57.3244738817  TIP3      4563            0.0000000000
     22265      4627  TIP3      H2             20.7247889871        1.1859998732      -57.1756264124  TIP3      4563            0.0000000000
     22266      4628  TIP3      OH2            21.1239587099       -1.4187022155      -59.0390801846  TIP3      4564            0.0000000000
     22267      4628  TIP3      H1             21.6136165940       -0.7889274142      -59.6264884197  TIP3      4564            0.0000000000
     22268      4628  TIP3      H2             20.2324802727       -1.2970450549      -59.4154213477  TIP3      4564            0.0000000000
     22269      4629  TIP3      OH2            22.4594054947        4.0866731977      -59.1051509634  TIP3      4565            0.0000000000
     22270      4629  TIP3      H1             23.3297851198        4.0822388616      -59.5374657169  TIP3      4565            0.0000000000
     22271      4629  TIP3      H2             22.2151359102        5.0308101433      -59.2241799669  TIP3      4565            0.0000000000
     22272      4630  TIP3      OH2            19.2769918103        1.6441821899      -54.6261616457  TIP3      4566            0.0000000000
     22273      4630  TIP3      H1             18.4892264221        1.0858321424      -54.7924407270  TIP3      4566            0.0000000000
     22274      4630  TIP3      H2             19.8950525738        1.2621446490      -55.2700265663  TIP3      4566            0.0000000000
     22275      4631  TIP3      OH2            21.6573006589       -3.8744103199      -58.4727741773  TIP3      4567            0.0000000000
     22276      4631  TIP3      H1             21.6129809958       -2.9075779611      -58.6866895346  TIP3      4567            0.0000000000
     22277      4631  TIP3      H2             21.0409814181       -4.2241874312      -59.1411322091  TIP3      4567            0.0000000000
     22278      4632  TIP3      OH2            22.6790666684        0.9432070841      -54.5459586034  TIP3      4568            0.0000000000
     22279      4632  TIP3      H1             22.7645244246        0.1870867237      -53.9414624236  TIP3      4568            0.0000000000
     22280      4632  TIP3      H2             22.2719906506        0.5214677944      -55.3277708513  TIP3      4568            0.0000000000
     22281      4633  TIP3      OH2            17.3059587366       -0.3990103390      -54.8907031515  TIP3      4569            0.0000000000
     22282      4633  TIP3      H1             17.5454954811       -1.1488356015      -55.4652600596  TIP3      4569            0.0000000000
     22283      4633  TIP3      H2             17.2410943421       -0.8253934891      -54.0119749263  TIP3      4569            0.0000000000
     22284      4634  TIP3      OH2            22.2050460696       -4.3994316464      -55.9498481095  TIP3      4570            0.0000000000
     22285      4634  TIP3      H1             22.9372862237       -5.0352104198      -55.9888188751  TIP3      4570            0.0000000000
     22286      4634  TIP3      H2             22.0319631310       -4.2416336796      -56.9083229647  TIP3      4570            0.0000000000
     22287      4635  TIP3      OH2            22.5227459316       -2.8285523850      -53.8042260437  TIP3      4571            0.0000000000
     22288      4635  TIP3      H1             22.3977036274       -3.3140102501      -54.6574866688  TIP3      4571            0.0000000000
     22289      4635  TIP3      H2             21.9397607048       -2.0466939665      -53.8701243659  TIP3      4571            0.0000000000
     22290      4636  TIP3      OH2            22.0901358497       14.2408157205      -70.5483988084  TIP3      4572            0.0000000000
     22291      4636  TIP3      H1             23.0466541958       14.2129296856      -70.6738691400  TIP3      4572            0.0000000000
     22292      4636  TIP3      H2             21.8394452583       14.6809152804      -71.3878625896  TIP3      4572            0.0000000000
     22293      4637  TIP3      OH2            15.4589020010        8.7127806282      -71.0463650769  TIP3      4573            0.0000000000
     22294      4637  TIP3      H1             16.4180059263        8.8850287539      -70.9124597015  TIP3      4573            0.0000000000
     22295      4637  TIP3      H2             15.4727384729        8.1612875030      -71.8498367953  TIP3      4573            0.0000000000
     22296      4638  TIP3      OH2            14.3516236570       14.0703958309      -66.2227142460  TIP3      4574            0.0000000000
     22297      4638  TIP3      H1             13.6227447156       13.5812668835      -66.6656619126  TIP3      4574            0.0000000000
     22298      4638  TIP3      H2             14.6254628116       13.4346938904      -65.5352551734  TIP3      4574            0.0000000000
     22299      4639  TIP3      OH2            15.1802380907       12.2312625713      -64.3193227249  TIP3      4575            0.0000000000
     22300      4639  TIP3      H1             14.8047089938       11.3662815467      -64.1026448870  TIP3      4575            0.0000000000
     22301      4639  TIP3      H2             15.4094227973       12.5729004404      -63.4375999152  TIP3      4575            0.0000000000
     22302      4640  TIP3      OH2            15.2320941280        5.3233164266      -61.8214027942  TIP3      4576            0.0000000000
     22303      4640  TIP3      H1             15.3851630139        5.2226381560      -62.7866338569  TIP3      4576            0.0000000000
     22304      4640  TIP3      H2             16.1285915626        5.1121772656      -61.4879302301  TIP3      4576            0.0000000000
     22305      4641  TIP3      OH2            14.8653272063        0.6200138358      -55.6226541242  TIP3      4577            0.0000000000
     22306      4641  TIP3      H1             15.8006688949        0.3708025533      -55.4701159183  TIP3      4577            0.0000000000
     22307      4641  TIP3      H2             14.3859170668       -0.2100361939      -55.4053600459  TIP3      4577            0.0000000000
     22308      4642  TIP3      OH2            16.0265500088       -1.1109227812      -62.7893621059  TIP3      4578            0.0000000000
     22309      4642  TIP3      H1             16.5373413731       -1.9323022966      -62.6128237319  TIP3      4578            0.0000000000
     22310      4642  TIP3      H2             16.6514808288       -0.4274163293      -62.4940068594  TIP3      4578            0.0000000000
     22311      4643  TIP3      OH2            14.3234314331        1.8957060182      -61.8290505231  TIP3      4579            0.0000000000
     22312      4643  TIP3      H1             14.9316722563        1.6633896058      -62.5621787205  TIP3      4579            0.0000000000
     22313      4643  TIP3      H2             14.7899547042        2.6947164044      -61.5319574016  TIP3      4579            0.0000000000
     22314      4644  TIP3      OH2            14.6320492045       -1.7625863241      -67.6837129179  TIP3      4580            0.0000000000
     22315      4644  TIP3      H1             13.6962147919       -1.6401652879      -67.8898424722  TIP3      4580            0.0000000000
     22316      4644  TIP3      H2             15.0683061774       -1.3271311625      -68.4342549667  TIP3      4580            0.0000000000
     22317      4645  TIP3      OH2            14.6420164687       -3.2138294640      -59.4353606863  TIP3      4581            0.0000000000
     22318      4645  TIP3      H1             13.9985241968       -3.4018616960      -58.7265365591  TIP3      4581            0.0000000000
     22319      4645  TIP3      H2             14.2027163788       -2.5125977259      -59.9426776556  TIP3      4581            0.0000000000
     22320      4646  TIP3      OH2            16.9065978259        9.9883212552      -55.2872723535  TIP3      4582            0.0000000000
     22321      4646  TIP3      H1             16.0699019304       10.2391695729      -55.7190255561  TIP3      4582            0.0000000000
     22322      4646  TIP3      H2             16.6464417187        9.9146555723      -54.3679993652  TIP3      4582            0.0000000000
     22323      4647  TIP3      OH2            19.7545083188       11.0868624371      -58.9636505036  TIP3      4583            0.0000000000
     22324      4647  TIP3      H1             19.4908914370       11.9659799843      -59.2695883544  TIP3      4583            0.0000000000
     22325      4647  TIP3      H2             20.6941570293       11.1102979179      -59.2340026471  TIP3      4583            0.0000000000
     22326      4648  TIP3      OH2            17.2065298930       14.2604063844      -59.0274991309  TIP3      4584            0.0000000000
     22327      4648  TIP3      H1             16.4714103483       14.7790630254      -59.3969990156  TIP3      4584            0.0000000000
     22328      4648  TIP3      H2             16.9275875627       14.0901327437      -58.1154475242  TIP3      4584            0.0000000000
     22329      4649  TIP3      OH2            19.6675322662       13.7977557610      -59.9899162264  TIP3      4585            0.0000000000
     22330      4649  TIP3      H1             18.8080047249       13.9766360652      -59.5360880326  TIP3      4585            0.0000000000
     22331      4649  TIP3      H2             19.5992894367       14.4576330141      -60.7012611933  TIP3      4585            0.0000000000
     22332      4650  TIP3      OH2            16.7061738590       12.9003115946      -62.0728882788  TIP3      4586            0.0000000000
     22333      4650  TIP3      H1             16.6159988049       12.4153148408      -61.2276915358  TIP3      4586            0.0000000000
     22334      4650  TIP3      H2             17.5172752895       12.5093508792      -62.4570768172  TIP3      4586            0.0000000000
     22335      4651  TIP3      OH2            18.7776047423       11.6248295602      -63.4278437787  TIP3      4587            0.0000000000
     22336      4651  TIP3      H1             18.6392663830       10.6949084396      -63.1645358963  TIP3      4587            0.0000000000
     22337      4651  TIP3      H2             19.6322303276       11.8004908017      -62.9908380125  TIP3      4587            0.0000000000
     22338      4652  TIP3      OH2            21.3963085805       12.1020343296      -62.5428998592  TIP3      4588            0.0000000000
     22339      4652  TIP3      H1             21.5050294441       11.1665666674      -62.7889005250  TIP3      4588            0.0000000000
     22340      4652  TIP3      H2             21.3532464656       12.0674894217      -61.5755837630  TIP3      4588            0.0000000000
     22341      4653  TIP3      OH2            17.2223211415       -3.6454461917      -65.5028031018  TIP3      4589            0.0000000000
     22342      4653  TIP3      H1             16.4468814809       -3.7872626645      -66.0754828504  TIP3      4589            0.0000000000
     22343      4653  TIP3      H2             17.6346859204       -4.5292560556      -65.5819377895  TIP3      4589            0.0000000000
     22344      4654  TIP3      OH2            15.9390549602       -3.8735651592      -69.9118129595  TIP3      4590            0.0000000000
     22345      4654  TIP3      H1             16.4588800625       -3.1940126728      -70.3851694026  TIP3      4590            0.0000000000
     22346      4654  TIP3      H2             15.3817897227       -3.3542446842      -69.3111465589  TIP3      4590            0.0000000000
     22347      4655  TIP3      OH2            21.4912648564       -3.5344361399      -65.6575408549  TIP3      4591            0.0000000000
     22348      4655  TIP3      H1             22.4346972204       -3.4036278520      -65.8482853846  TIP3      4591            0.0000000000
     22349      4655  TIP3      H2             21.5465587972       -3.8813857297      -64.7637638097  TIP3      4591            0.0000000000
     22350      4656  TIP3      OH2            15.8491000888       12.0757629462      -68.7533457035  TIP3      4592            0.0000000000
     22351      4656  TIP3      H1             15.2126764046       12.0732249559      -69.4972906314  TIP3      4592            0.0000000000
     22352      4656  TIP3      H2             15.8817280986       13.0260619314      -68.6038066633  TIP3      4592            0.0000000000
     22353      4657  TIP3      OH2            17.7419215764       -2.1455883105      -71.2744498240  TIP3      4593            0.0000000000
     22354      4657  TIP3      H1             18.3898620957       -2.5433001779      -71.8620809702  TIP3      4593            0.0000000000
     22355      4657  TIP3      H2             18.3500395259       -1.6684125757      -70.6601856049  TIP3      4593            0.0000000000
     22356      4658  TIP3      OH2            22.3685501062       -1.5585001409      -69.2747921611  TIP3      4594            0.0000000000
     22357      4658  TIP3      H1             22.7867535070       -2.2855261707      -68.7935755228  TIP3      4594            0.0000000000
     22358      4658  TIP3      H2             22.7212601641       -0.7902324574      -68.8171860317  TIP3      4594            0.0000000000
     22359      4659  TIP3      OH2            17.0472781647       -3.0778162853      -56.1087015745  TIP3      4595            0.0000000000
     22360      4659  TIP3      H1             16.6431850502       -3.8976121744      -55.7559781623  TIP3      4595            0.0000000000
     22361      4659  TIP3      H2             17.9442637727       -3.1565977143      -55.7016577696  TIP3      4595            0.0000000000
     22362      4660  TIP3      OH2            18.9996352022       -3.7372280283      -54.4710099868  TIP3      4596            0.0000000000
     22363      4660  TIP3      H1             19.8966981273       -4.0538000985      -54.6805171019  TIP3      4596            0.0000000000
     22364      4660  TIP3      H2             18.6642414534       -4.5243467934      -53.9991219312  TIP3      4596            0.0000000000
     22365      4661  TIP3      OH2            17.5525834252       12.8818823049      -71.6742350853  TIP3      4597            0.0000000000
     22366      4661  TIP3      H1             17.4330743819       13.3417228014      -70.8339314157  TIP3      4597            0.0000000000
     22367      4661  TIP3      H2             18.4392726978       12.4935206224      -71.6007755122  TIP3      4597            0.0000000000
     22368      4662  TIP3      OH2           -20.2758060664       23.1364960381      -60.6112991840  TIP3      4598            0.0000000000
     22369      4662  TIP3      H1            -20.1007857516       22.5458193164      -59.8674988398  TIP3      4598            0.0000000000
     22370      4662  TIP3      H2            -19.6334958929       23.8720318221      -60.5083014352  TIP3      4598            0.0000000000
     22371      4663  TIP3      OH2           -22.6171589811       21.3718325678      -66.7649638140  TIP3      4599            0.0000000000
     22372      4663  TIP3      H1            -23.1000601053       22.1939231944      -66.7085686571  TIP3      4599            0.0000000000
     22373      4663  TIP3      H2            -23.2518598306       20.7432780876      -67.1049886852  TIP3      4599            0.0000000000
     22374      4664  TIP3      OH2            -5.6403941034       17.6852682924      -61.0230734691  TIP3      4600            0.0000000000
     22375      4664  TIP3      H1             -5.4693608089       18.2483419813      -60.2388924630  TIP3      4600            0.0000000000
     22376      4664  TIP3      H2             -5.0401777121       18.1110687400      -61.6539197571  TIP3      4600            0.0000000000
     22377      4665  TIP3      OH2           -11.0451710497       20.4923062896      -61.3854380003  TIP3      4601            0.0000000000
     22378      4665  TIP3      H1            -10.8743189522       19.5350130668      -61.3951016556  TIP3      4601            0.0000000000
     22379      4665  TIP3      H2            -11.1490012985       20.6927933699      -62.3318273817  TIP3      4601            0.0000000000
     22380      4666  TIP3      OH2           -17.9796038081       18.6204057547      -64.1647796769  TIP3      4602            0.0000000000
     22381      4666  TIP3      H1            -17.8295657130       19.4328704417      -64.6876574074  TIP3      4602            0.0000000000
     22382      4666  TIP3      H2            -18.3282810637       18.0361016562      -64.8752417075  TIP3      4602            0.0000000000
     22383      4667  TIP3      OH2           -10.1967701261       18.6557317141      -65.8234056336  TIP3      4603            0.0000000000
     22384      4667  TIP3      H1             -9.5743785285       18.3327973589      -65.1315614848  TIP3      4603            0.0000000000
     22385      4667  TIP3      H2             -9.6045310955       19.2459290531      -66.3130170778  TIP3      4603            0.0000000000
     22386      4668  TIP3      OH2           -21.1960516871       20.9871957709      -63.5290173315  TIP3      4604            0.0000000000
     22387      4668  TIP3      H1            -20.6117624145       20.4112800397      -63.0119304096  TIP3      4604            0.0000000000
     22388      4668  TIP3      H2            -21.1256087597       20.5969730061      -64.4096994485  TIP3      4604            0.0000000000
     22389      4669  TIP3      OH2           -16.2553338295       22.3012497197      -64.0761299397  TIP3      4605            0.0000000000
     22390      4669  TIP3      H1            -15.4930278992       21.7746456456      -63.7818403803  TIP3      4605            0.0000000000
     22391      4669  TIP3      H2            -16.6995208938       21.7466833992      -64.7433576128  TIP3      4605            0.0000000000
     22392      4670  TIP3      OH2            -5.2562892672       19.0501368124      -58.7324134693  TIP3      4606            0.0000000000
     22393      4670  TIP3      H1             -5.7756202517       19.8775612763      -58.8363047106  TIP3      4606            0.0000000000
     22394      4670  TIP3      H2             -5.1819850795       19.0068833604      -57.7663309157  TIP3      4606            0.0000000000
     22395      4671  TIP3      OH2           -18.9970961456       17.4449793939      -60.1579383573  TIP3      4607            0.0000000000
     22396      4671  TIP3      H1            -19.2945941398       18.0172805010      -60.8907787472  TIP3      4607            0.0000000000
     22397      4671  TIP3      H2            -19.6747637164       17.6795374987      -59.4765308811  TIP3      4607            0.0000000000
     22398      4672  TIP3      OH2            -8.3637162394       18.0181588364      -63.8075520741  TIP3      4608            0.0000000000
     22399      4672  TIP3      H1             -8.5891972940       17.2511697815      -63.2760751260  TIP3      4608            0.0000000000
     22400      4672  TIP3      H2             -7.7156302084       18.4732913328      -63.2377534272  TIP3      4608            0.0000000000
     22401      4673  TIP3      OH2           -19.4981916932       19.3107685845      -62.0732501994  TIP3      4609            0.0000000000
     22402      4673  TIP3      H1            -18.8561714935       19.9745743138      -61.7453937428  TIP3      4609            0.0000000000
     22403      4673  TIP3      H2            -18.9875176658       18.9653211599      -62.8514624139  TIP3      4609            0.0000000000
     22404      4674  TIP3      OH2            -8.0706095241       16.6799659980      -60.1592781652  TIP3      4610            0.0000000000
     22405      4674  TIP3      H1             -8.7828891817       17.3246722430      -60.2781197324  TIP3      4610            0.0000000000
     22406      4674  TIP3      H2             -7.3393562019       17.0951744357      -60.6640277046  TIP3      4610            0.0000000000
     22407      4675  TIP3      OH2           -15.1354638680       14.8330490307      -62.6935204716  TIP3      4611            0.0000000000
     22408      4675  TIP3      H1            -15.3058364871       13.8726199936      -62.7757799475  TIP3      4611            0.0000000000
     22409      4675  TIP3      H2            -16.0046175159       15.1572698177      -62.3639747108  TIP3      4611            0.0000000000
     22410      4676  TIP3      OH2           -12.6934776016       22.1083868264      -71.1690949301  TIP3      4612            0.0000000000
     22411      4676  TIP3      H1            -12.0406053540       22.1813410467      -70.4470461462  TIP3      4612            0.0000000000
     22412      4676  TIP3      H2            -12.2929030429       21.4179237396      -71.7154195145  TIP3      4612            0.0000000000
     22413      4677  TIP3      OH2            -5.7487023598       22.9377282927      -60.1403900683  TIP3      4613            0.0000000000
     22414      4677  TIP3      H1             -6.1312162194       23.8068864137      -59.9964656394  TIP3      4613            0.0000000000
     22415      4677  TIP3      H2             -4.9236453616       23.1969484266      -60.5791168446  TIP3      4613            0.0000000000
     22416      4678  TIP3      OH2            -9.4004957503       22.0398608782      -58.1333161718  TIP3      4614            0.0000000000
     22417      4678  TIP3      H1             -9.4367877839       22.8846101521      -57.6769775253  TIP3      4614            0.0000000000
     22418      4678  TIP3      H2            -10.0246244193       22.2383769950      -58.8735527926  TIP3      4614            0.0000000000
     22419      4679  TIP3      OH2           -16.6811442008      -23.9396890283      -61.3680195393  TIP3      4615            0.0000000000
     22420      4679  TIP3      H1            -16.8397310083      -23.7971120297      -62.3331808866  TIP3      4615            0.0000000000
     22421      4679  TIP3      H2            -17.1855031040      -23.1246516967      -61.1571358338  TIP3      4615            0.0000000000
     22422      4680  TIP3      OH2           -10.6038714717       22.9138363330      -69.8167080152  TIP3      4616            0.0000000000
     22423      4680  TIP3      H1            -10.1172108885       23.0501058764      -68.9953095430  TIP3      4616            0.0000000000
     22424      4680  TIP3      H2            -10.1727395445       23.5611530068      -70.3826814408  TIP3      4616            0.0000000000
     22425      4681  TIP3      OH2            -6.7294239060       14.7206493465      -69.7451218180  TIP3      4617            0.0000000000
     22426      4681  TIP3      H1             -7.6523269104       14.8008415071      -69.4264796891  TIP3      4617            0.0000000000
     22427      4681  TIP3      H2             -6.5228631576       15.6368804851      -69.9829712884  TIP3      4617            0.0000000000
     22428      4682  TIP3      OH2            -7.5592994837       20.8618877895      -55.9121052718  TIP3      4618            0.0000000000
     22429      4682  TIP3      H1             -7.9488411229       21.3303738759      -56.6633471414  TIP3      4618            0.0000000000
     22430      4682  TIP3      H2             -7.5756614587       19.9376694005      -56.2102698562  TIP3      4618            0.0000000000
     22431      4683  TIP3      OH2           -17.6810002013       15.7685920083      -61.9796007647  TIP3      4619            0.0000000000
     22432      4683  TIP3      H1            -18.5928729066       15.5981849391      -62.3111337912  TIP3      4619            0.0000000000
     22433      4683  TIP3      H2            -17.8622778705       16.5490965364      -61.4295983179  TIP3      4619            0.0000000000
     22434      4684  TIP3      OH2           -13.0426529296       15.3637707856      -58.5894505313  TIP3      4620            0.0000000000
     22435      4684  TIP3      H1            -12.6634488582       14.9414257298      -57.7953727040  TIP3      4620            0.0000000000
     22436      4684  TIP3      H2            -14.0180841866       15.2837139185      -58.4415889649  TIP3      4620            0.0000000000
     22437      4685  TIP3      OH2            -9.8102711446       19.2888246293      -57.6627306139  TIP3      4621            0.0000000000
     22438      4685  TIP3      H1            -10.3500799967       19.0464276064      -56.8693891359  TIP3      4621            0.0000000000
     22439      4685  TIP3      H2            -10.0311941549       20.2049044870      -57.8819236950  TIP3      4621            0.0000000000
     22440      4686  TIP3      OH2           -13.3481856269       17.8510519009      -71.1398632974  TIP3      4622            0.0000000000
     22441      4686  TIP3      H1            -13.8084299844       17.9230723580      -70.2775749986  TIP3      4622            0.0000000000
     22442      4686  TIP3      H2            -13.8043082461       17.1029648911      -71.5308684798  TIP3      4622            0.0000000000
     22443      4687  TIP3      OH2           -17.6686485841       20.5538002050      -60.5488160021  TIP3      4623            0.0000000000
     22444      4687  TIP3      H1            -18.4372595718       20.7160338714      -59.9745575604  TIP3      4623            0.0000000000
     22445      4687  TIP3      H2            -17.5571233205       21.4104428674      -61.0215989167  TIP3      4623            0.0000000000
     22446      4688  TIP3      OH2           -17.6507140303       20.7387448526      -65.8253112855  TIP3      4624            0.0000000000
     22447      4688  TIP3      H1            -18.6125691690       20.5827899233      -65.9725419485  TIP3      4624            0.0000000000
     22448      4688  TIP3      H2            -17.3121355955       20.4921420652      -66.7069190892  TIP3      4624            0.0000000000
     22449      4689  TIP3      OH2           -12.0022597729       21.3507923246      -67.0186815698  TIP3      4625            0.0000000000
     22450      4689  TIP3      H1            -12.6112597818       22.0142669701      -67.3735488701  TIP3      4625            0.0000000000
     22451      4689  TIP3      H2            -11.4475803817       21.0911038583      -67.7778987508  TIP3      4625            0.0000000000
     22452      4690  TIP3      OH2           -12.9686618591       21.5397768072      -55.6494640838  TIP3      4626            0.0000000000
     22453      4690  TIP3      H1            -13.5694302737       20.8099850789      -55.3442808626  TIP3      4626            0.0000000000
     22454      4690  TIP3      H2            -12.1964264465       21.3774254921      -55.0804165518  TIP3      4626            0.0000000000
     22455      4691  TIP3      OH2           -11.1614598093       20.7679300079      -64.1762315908  TIP3      4627            0.0000000000
     22456      4691  TIP3      H1            -11.4152616018       21.2770707924      -64.9613728811  TIP3      4627            0.0000000000
     22457      4691  TIP3      H2            -11.0032019470       19.8980886581      -64.5929421713  TIP3      4627            0.0000000000
     22458      4692  TIP3      OH2           -20.0158830876       21.0141878685      -58.9408334582  TIP3      4628            0.0000000000
     22459      4692  TIP3      H1            -20.0212859856       21.3437856913      -58.0353318288  TIP3      4628            0.0000000000
     22460      4692  TIP3      H2            -20.3869553869       20.1189013533      -58.8261375646  TIP3      4628            0.0000000000
     22461      4693  TIP3      OH2           -16.6417226438       18.7195549350      -71.7856475921  TIP3      4629            0.0000000000
     22462      4693  TIP3      H1            -17.0136493012       17.9250620236      -71.3657271728  TIP3      4629            0.0000000000
     22463      4693  TIP3      H2            -17.1262986645       18.7294801085      -72.6145641195  TIP3      4629            0.0000000000
     22464      4694  TIP3      OH2           -22.1106278893       18.1672020351      -65.2515264334  TIP3      4630            0.0000000000
     22465      4694  TIP3      H1            -22.3801356215       17.9283964617      -64.3538578442  TIP3      4630            0.0000000000
     22466      4694  TIP3      H2            -22.7373777233       17.6393521178      -65.7635455380  TIP3      4630            0.0000000000
     22467      4695  TIP3      OH2           -22.0630016624       18.8405618466      -69.5526198143  TIP3      4631            0.0000000000
     22468      4695  TIP3      H1            -21.5001864022       19.3485208240      -70.1850317245  TIP3      4631            0.0000000000
     22469      4695  TIP3      H2            -22.7659540871       19.4773861334      -69.4520002812  TIP3      4631            0.0000000000
     22470      4696  TIP3      OH2           -11.8029549680       22.3197392875      -59.5208209895  TIP3      4632            0.0000000000
     22471      4696  TIP3      H1            -11.5380182364       21.7548152639      -60.2744314778  TIP3      4632            0.0000000000
     22472      4696  TIP3      H2            -12.4075686126       21.7438631459      -59.0125582844  TIP3      4632            0.0000000000
     22473      4697  TIP3      OH2           -15.0972275704       18.3535352819      -64.8148234473  TIP3      4633            0.0000000000
     22474      4697  TIP3      H1            -16.0287490777       18.3814255713      -64.5199288184  TIP3      4633            0.0000000000
     22475      4697  TIP3      H2            -14.6318102938       18.2306492009      -63.9720239550  TIP3      4633            0.0000000000
     22476      4698  TIP3      OH2           -20.1343758683       19.9382264706      -65.9878734637  TIP3      4634            0.0000000000
     22477      4698  TIP3      H1            -21.0774956390       20.0561848401      -66.2235306562  TIP3      4634            0.0000000000
     22478      4698  TIP3      H2            -20.0002705008       19.0239831765      -66.3007227953  TIP3      4634            0.0000000000
     22479      4699  TIP3      OH2           -16.6718328536       20.0251917594      -68.2977123316  TIP3      4635            0.0000000000
     22480      4699  TIP3      H1            -15.7081525200       20.0659874512      -68.1743472963  TIP3      4635            0.0000000000
     22481      4699  TIP3      H2            -16.8578929325       20.6370958359      -69.0354583673  TIP3      4635            0.0000000000
     22482      4700  TIP3      OH2           -10.6771793981       17.6153402713      -61.5791842553  TIP3      4636            0.0000000000
     22483      4700  TIP3      H1            -11.3506095163       17.6371299643      -60.8641143176  TIP3      4636            0.0000000000
     22484      4700  TIP3      H2            -11.1943132771       17.3372243011      -62.3481796714  TIP3      4636            0.0000000000
     22485      4701  TIP3      OH2           -18.0399803971       21.2632810463      -70.7456519909  TIP3      4637            0.0000000000
     22486      4701  TIP3      H1            -18.4401601228       20.7138154630      -71.4180991723  TIP3      4637            0.0000000000
     22487      4701  TIP3      H2            -17.1439286770       21.3830091524      -71.1156232883  TIP3      4637            0.0000000000
     22488      4702  TIP3      OH2           -13.9169335992       21.0786988142      -62.9788090302  TIP3      4638            0.0000000000
     22489      4702  TIP3      H1            -13.2092243045       20.6049270980      -63.4276583087  TIP3      4638            0.0000000000
     22490      4702  TIP3      H2            -13.9879643809       20.6172068130      -62.1324740277  TIP3      4638            0.0000000000
     22491      4703  TIP3      OH2           -18.8290450740       17.2458732908      -66.4370533795  TIP3      4639            0.0000000000
     22492      4703  TIP3      H1            -19.1279206659       16.3225687802      -66.4475571163  TIP3      4639            0.0000000000
     22493      4703  TIP3      H2            -18.0448409076       17.1956743424      -67.0006656455  TIP3      4639            0.0000000000
     22494      4704  TIP3      OH2           -15.1677258828       19.4510496083      -60.5179105504  TIP3      4640            0.0000000000
     22495      4704  TIP3      H1            -15.9850848178       19.9784652018      -60.4409266344  TIP3      4640            0.0000000000
     22496      4704  TIP3      H2            -14.6036340174       19.7997187964      -59.8067949554  TIP3      4640            0.0000000000
     22497      4705  TIP3      OH2           -10.7288744001       18.4279326588      -70.6683552030  TIP3      4641            0.0000000000
     22498      4705  TIP3      H1            -11.6882831783       18.5845768444      -70.7818774820  TIP3      4641            0.0000000000
     22499      4705  TIP3      H2            -10.3918999965       19.2727888960      -70.2851449674  TIP3      4641            0.0000000000
     22500      4706  TIP3      OH2           -10.0465786511       20.4535394362      -68.9645499655  TIP3      4642            0.0000000000
     22501      4706  TIP3      H1             -9.1568975379       20.2593355893      -68.5770981268  TIP3      4642            0.0000000000
     22502      4706  TIP3      H2             -9.8886463413       21.2554983233      -69.4951370013  TIP3      4642            0.0000000000
     22503      4707  TIP3      OH2           -15.5660507119       22.0137484372      -55.1791692491  TIP3      4643            0.0000000000
     22504      4707  TIP3      H1            -15.9004112703       22.3018372212      -56.0426551222  TIP3      4643            0.0000000000
     22505      4707  TIP3      H2            -14.6627076438       22.3846658127      -55.1238207816  TIP3      4643            0.0000000000
     22506      4708  TIP3      OH2            -5.1351549010       20.5465470085      -69.1811512733  TIP3      4644            0.0000000000
     22507      4708  TIP3      H1             -5.7335099452       20.2495582937      -69.9028258453  TIP3      4644            0.0000000000
     22508      4708  TIP3      H2             -5.0772204999       21.4758517658      -69.4515948357  TIP3      4644            0.0000000000
     22509      4709  TIP3      OH2           -21.3767406364      -23.5692747746      -71.4946947870  TIP3      4645            0.0000000000
     22510      4709  TIP3      H1            -20.6728156091      -23.1188763887      -70.9868620777  TIP3      4645            0.0000000000
     22511      4709  TIP3      H2            -22.1261620675      -23.2498828756      -70.9704580187  TIP3      4645            0.0000000000
     22512      4710  TIP3      OH2           -20.8010420650       18.1973932234      -58.2726917307  TIP3      4646            0.0000000000
     22513      4710  TIP3      H1            -21.6873390815       18.5763985980      -58.0930720516  TIP3      4646            0.0000000000
     22514      4710  TIP3      H2            -20.8793167751       17.3986158755      -57.7258464897  TIP3      4646            0.0000000000
     22515      4711  TIP3      OH2           -12.1025974652       17.9564204329      -59.1918805453  TIP3      4647            0.0000000000
     22516      4711  TIP3      H1            -11.3935344301       18.0838726021      -58.5556414156  TIP3      4647            0.0000000000
     22517      4711  TIP3      H2            -12.4596665284       17.0775825579      -58.9577737540  TIP3      4647            0.0000000000
     22518      4712  TIP3      OH2           -11.2584149989       17.4983067415      -68.1697625749  TIP3      4648            0.0000000000
     22519      4712  TIP3      H1            -11.1142360855       18.0788955814      -68.9329314175  TIP3      4648            0.0000000000
     22520      4712  TIP3      H2            -10.8179449180       17.9890698220      -67.4536474189  TIP3      4648            0.0000000000
     22521      4713  TIP3      OH2           -14.1179029207       19.2488722870      -67.3214064708  TIP3      4649            0.0000000000
     22522      4713  TIP3      H1            -13.3957564718       19.8919091487      -67.2904680848  TIP3      4649            0.0000000000
     22523      4713  TIP3      H2            -14.4348541067       19.1758435682      -66.3992656778  TIP3      4649            0.0000000000
     22524      4714  TIP3      OH2           -13.5627140069       20.3566404274      -58.0713922133  TIP3      4650            0.0000000000
     22525      4714  TIP3      H1            -13.4941056291       20.8428812588      -57.2317424658  TIP3      4650            0.0000000000
     22526      4714  TIP3      H2            -12.9296767489       19.6274521853      -58.0088742557  TIP3      4650            0.0000000000
     22527      4715  TIP3      OH2           -13.2828799349       16.3213013054      -66.5102010290  TIP3      4651            0.0000000000
     22528      4715  TIP3      H1            -13.6273875234       16.9405428990      -65.8412748914  TIP3      4651            0.0000000000
     22529      4715  TIP3      H2            -12.5877366032       16.8954497374      -66.8985933289  TIP3      4651            0.0000000000
     22530      4716  TIP3      OH2           -17.6142406605       17.3987825714      -69.6783527575  TIP3      4652            0.0000000000
     22531      4716  TIP3      H1            -17.6677703945       18.3181730524      -69.3502001874  TIP3      4652            0.0000000000
     22532      4716  TIP3      H2            -16.6874548347       17.1870958928      -69.4714681620  TIP3      4652            0.0000000000
     22533      4717  TIP3      OH2            -7.4319640240       18.1414191613      -57.2736184263  TIP3      4653            0.0000000000
     22534      4717  TIP3      H1             -8.3531606230       18.4620534327      -57.4046742998  TIP3      4653            0.0000000000
     22535      4717  TIP3      H2             -7.1055002721       18.1622244093      -58.1885689621  TIP3      4653            0.0000000000
     22536      4718  TIP3      OH2            -8.7923235794       21.7859322536      -63.4011517163  TIP3      4654            0.0000000000
     22537      4718  TIP3      H1             -9.6895804211       21.4305851997      -63.4851060274  TIP3      4654            0.0000000000
     22538      4718  TIP3      H2             -8.3775175358       21.1874720366      -62.7433607569  TIP3      4654            0.0000000000
     22539      4719  TIP3      OH2           -21.1039831193       20.5305197022      -71.3763578363  TIP3      4655            0.0000000000
     22540      4719  TIP3      H1            -21.0571419261       21.5072941279      -71.3256575260  TIP3      4655            0.0000000000
     22541      4719  TIP3      H2            -21.9236626893       20.4131041567      -71.8638687839  TIP3      4655            0.0000000000
     22542      4720  TIP3      OH2           -20.1986672780       15.3176458653      -62.7650338981  TIP3      4656            0.0000000000
     22543      4720  TIP3      H1            -20.3694799661       15.3780610592      -63.7344011637  TIP3      4656            0.0000000000
     22544      4720  TIP3      H2            -20.6814485378       14.4883783005      -62.5734248132  TIP3      4656            0.0000000000
     22545      4721  TIP3      OH2           -21.4879563070       22.6270405485      -55.0450149117  TIP3      4657            0.0000000000
     22546      4721  TIP3      H1            -20.7933445306       21.9523040712      -55.0103187942  TIP3      4657            0.0000000000
     22547      4721  TIP3      H2            -21.4810311506       22.9370524033      -54.1068168002  TIP3      4657            0.0000000000
     22548      4722  TIP3      OH2           -17.2904338165       21.9567393606      -57.5644535636  TIP3      4658            0.0000000000
     22549      4722  TIP3      H1            -17.9580128923       22.6271133309      -57.3649973205  TIP3      4658            0.0000000000
     22550      4722  TIP3      H2            -16.9511698519       22.1952650122      -58.4390822357  TIP3      4658            0.0000000000
     22551      4723  TIP3      OH2           -15.5400455385       22.0857605999      -71.6463067634  TIP3      4659            0.0000000000
     22552      4723  TIP3      H1            -15.6994386030       22.2141849927      -72.5936082192  TIP3      4659            0.0000000000
     22553      4723  TIP3      H2            -14.6174846097       22.3724445961      -71.5589004121  TIP3      4659            0.0000000000
     22554      4724  TIP3      OH2           -16.9245409176       19.1772895832      -56.6020436949  TIP3      4660            0.0000000000
     22555      4724  TIP3      H1            -16.8233508363       18.4878973372      -57.2786670140  TIP3      4660            0.0000000000
     22556      4724  TIP3      H2            -17.0062627772       19.9847310309      -57.1362516141  TIP3      4660            0.0000000000
     22557      4725  TIP3      OH2           -16.5118856507       17.5491741444      -59.0535078424  TIP3      4661            0.0000000000
     22558      4725  TIP3      H1            -15.9916746205       18.0516125429      -59.7241187022  TIP3      4661            0.0000000000
     22559      4725  TIP3      H2            -17.4197373608       17.6121780555      -59.4272833651  TIP3      4661            0.0000000000
     22560      4726  TIP3      OH2           -14.7066000050      -24.0402551575      -58.9719668944  TIP3      4662            0.0000000000
     22561      4726  TIP3      H1            -13.9498777861      -24.0010898349      -59.5764735487  TIP3      4662            0.0000000000
     22562      4726  TIP3      H2            -15.1560748442      -23.2202675121      -59.1956309265  TIP3      4662            0.0000000000
     22563      4727  TIP3      OH2           -10.5732433828       20.8519812853      -53.8346639270  TIP3      4663            0.0000000000
     22564      4727  TIP3      H1            -10.4262013306       19.9012105526      -53.9537672030  TIP3      4663            0.0000000000
     22565      4727  TIP3      H2             -9.6621079689       21.1828499484      -53.8619242695  TIP3      4663            0.0000000000
     22566      4728  TIP3      OH2           -18.5665758140       20.5541960618      -54.7104424516  TIP3      4664            0.0000000000
     22567      4728  TIP3      H1            -19.2387865896       19.8408400053      -54.7998755033  TIP3      4664            0.0000000000
     22568      4728  TIP3      H2            -17.8409551134       20.1986001819      -55.2630183894  TIP3      4664            0.0000000000
     22569      4729  TIP3      OH2           -15.7203529013       15.0633682211      -58.6669113501  TIP3      4665            0.0000000000
     22570      4729  TIP3      H1            -15.9486358613       16.0217356574      -58.7544763538  TIP3      4665            0.0000000000
     22571      4729  TIP3      H2            -16.4681211562       14.6788001555      -59.1611366752  TIP3      4665            0.0000000000
     22572      4730  TIP3      OH2           -14.4084714786       19.3535005454      -55.0055618314  TIP3      4666            0.0000000000
     22573      4730  TIP3      H1            -14.7911264218       19.2039925592      -54.1214480336  TIP3      4666            0.0000000000
     22574      4730  TIP3      H2            -15.1974971849       19.1833639350      -55.5490500338  TIP3      4666            0.0000000000
     22575      4731  TIP3      OH2           -11.7148044914       18.5822661667      -55.8582083931  TIP3      4667            0.0000000000
     22576      4731  TIP3      H1            -12.6843652305       18.6371736876      -55.7850652095  TIP3      4667            0.0000000000
     22577      4731  TIP3      H2            -11.5039566269       17.9200045233      -55.1722834389  TIP3      4667            0.0000000000
     22578      4732  TIP3      OH2           -10.1954818392       17.1738024987      -54.0358271625  TIP3      4668            0.0000000000
     22579      4732  TIP3      H1            -10.2050808438       16.1935109010      -53.9951632461  TIP3      4668            0.0000000000
     22580      4732  TIP3      H2            -10.3897568039       17.4658340077      -53.1236246783  TIP3      4668            0.0000000000
     22581      4733  TIP3      OH2           -20.2103559872       18.4403779505      -54.8394790449  TIP3      4669            0.0000000000
     22582      4733  TIP3      H1            -20.1464224125       17.6991885947      -55.4672975481  TIP3      4669            0.0000000000
     22583      4733  TIP3      H2            -20.4724411423       17.9693370035      -54.0229671910  TIP3      4669            0.0000000000
     22584      4734  TIP3      OH2           -15.5213684839       14.4934057676      -55.9509004009  TIP3      4670            0.0000000000
     22585      4734  TIP3      H1            -14.8559873871       13.7776798651      -55.9472584966  TIP3      4670            0.0000000000
     22586      4734  TIP3      H2            -15.6478915781       14.5863259236      -56.9170306297  TIP3      4670            0.0000000000
     22587      4735  TIP3      OH2           -15.1683944529       16.0758460139      -53.7893089634  TIP3      4671            0.0000000000
     22588      4735  TIP3      H1            -15.3537854178       15.5568635116      -54.6120113673  TIP3      4671            0.0000000000
     22589      4735  TIP3      H2            -15.7512228675       16.8541490312      -53.9034372073  TIP3      4671            0.0000000000
     22590      4736  TIP3      OH2            -6.5758915772       20.5684363831      -71.4871797728  TIP3      4672            0.0000000000
     22591      4736  TIP3      H1             -6.6283219952       21.2750455314      -72.1523833467  TIP3      4672            0.0000000000
     22592      4736  TIP3      H2             -6.9160625589       19.8059793655      -71.9974099048  TIP3      4672            0.0000000000
     22593      4737  TIP3      OH2            -7.4922909303       22.0549228319      -65.9658848486  TIP3      4673            0.0000000000
     22594      4737  TIP3      H1             -7.6558297030       21.1026697661      -65.9711298552  TIP3      4673            0.0000000000
     22595      4737  TIP3      H2             -7.7480665149       22.2851031630      -65.0588118743  TIP3      4673            0.0000000000
     22596      4738  TIP3      OH2            -5.1277820995       21.9653860868      -55.5317170877  TIP3      4674            0.0000000000
     22597      4738  TIP3      H1             -5.9904165113       21.5554649596      -55.7035801005  TIP3      4674            0.0000000000
     22598      4738  TIP3      H2             -4.5429445628       21.2019096366      -55.6792513784  TIP3      4674            0.0000000000
     22599      4739  TIP3      OH2            -7.4835283617       18.1409513126      -72.2479833884  TIP3      4675            0.0000000000
     22600      4739  TIP3      H1             -6.8159846364       17.6036751206      -71.7839923036  TIP3      4675            0.0000000000
     22601      4739  TIP3      H2             -8.2770510943       17.6203346269      -72.2712501315  TIP3      4675            0.0000000000
     22602      4740  TIP3      OH2            -7.8906184691       19.6863871500      -67.4360342216  TIP3      4676            0.0000000000
     22603      4740  TIP3      H1             -7.5636489110       18.7756236766      -67.2739425392  TIP3      4676            0.0000000000
     22604      4740  TIP3      H2             -7.0787917578       20.0783726795      -67.7882772365  TIP3      4676            0.0000000000
     22605      4741  TIP3      OH2            -7.1563526926       20.1048621545      -61.9524330170  TIP3      4677            0.0000000000
     22606      4741  TIP3      H1             -6.2175885253       20.4025442782      -62.0239206147  TIP3      4677            0.0000000000
     22607      4741  TIP3      H2             -7.3663391748       20.4057587289      -61.0613880457  TIP3      4677            0.0000000000
     22608      4742  TIP3      OH2            -7.1266956153       20.9366930298      -59.0742512188  TIP3      4678            0.0000000000
     22609      4742  TIP3      H1             -8.0444500806       21.2357775014      -58.9063841480  TIP3      4678            0.0000000000
     22610      4742  TIP3      H2             -6.6960610123       21.7151985333      -59.5179445015  TIP3      4678            0.0000000000
     22611      4743  TIP3      OH2           -22.3275899948       19.1778965527      -56.3883230052  TIP3      4679            0.0000000000
     22612      4743  TIP3      H1            -21.6767506341       19.3731026481      -55.6853135823  TIP3      4679            0.0000000000
     22613      4743  TIP3      H2            -23.0293367166       18.8889826651      -55.7732742455  TIP3      4679            0.0000000000
     22614      4744  TIP3      OH2            -4.8184439302       15.0215042377      -53.8937499447  TIP3      4680            0.0000000000
     22615      4744  TIP3      H1             -4.4716096489       14.3469966808      -54.5016463918  TIP3      4680            0.0000000000
     22616      4744  TIP3      H2             -4.7645906251       15.8166787715      -54.4634691941  TIP3      4680            0.0000000000
     22617      4745  TIP3      OH2            -7.1425988795       16.9446397401      -67.4230404900  TIP3      4681            0.0000000000
     22618      4745  TIP3      H1             -6.8804113995       16.5618120077      -66.5496718941  TIP3      4681            0.0000000000
     22619      4745  TIP3      H2             -7.7378573281       16.2742759501      -67.7857159420  TIP3      4681            0.0000000000
     22620      4746  TIP3      OH2           -21.7378746329       17.7284369311      -62.6087150931  TIP3      4682            0.0000000000
     22621      4746  TIP3      H1            -21.2253671930       16.9064052861      -62.5272678228  TIP3      4682            0.0000000000
     22622      4746  TIP3      H2            -21.0760306222       18.4066220279      -62.4250015385  TIP3      4682            0.0000000000
     22623      4747  TIP3      OH2           -23.4263466224       21.0480302634      -62.0646257418  TIP3      4683            0.0000000000
     22624      4747  TIP3      H1            -22.7779121711       20.5055940214      -62.5509944840  TIP3      4683            0.0000000000
     22625      4747  TIP3      H2            -22.8217833848       21.6277483444      -61.5917109228  TIP3      4683            0.0000000000
     22626      4748  TIP3      OH2            -5.3201915345       17.1148997552      -55.5343366893  TIP3      4684            0.0000000000
     22627      4748  TIP3      H1             -6.2511745295       17.4115003645      -55.5765434301  TIP3      4684            0.0000000000
     22628      4748  TIP3      H2             -5.3214790085       16.5545824926      -56.3260834524  TIP3      4684            0.0000000000
     22629      4749  TIP3      OH2            -5.3248297966       17.0068047618      -70.9286904969  TIP3      4685            0.0000000000
     22630      4749  TIP3      H1             -4.8356516990       16.3028938422      -71.3784745157  TIP3      4685            0.0000000000
     22631      4749  TIP3      H2             -4.5957152516       17.6111370116      -70.7153299511  TIP3      4685            0.0000000000
     22632      4750  TIP3      OH2           -22.6515796321       16.8482330384      -67.5226903052  TIP3      4686            0.0000000000
     22633      4750  TIP3      H1            -23.5775288367       17.0975878835      -67.4066214678  TIP3      4686            0.0000000000
     22634      4750  TIP3      H2            -22.3347954817       17.4754276373      -68.2043638577  TIP3      4686            0.0000000000
     22635      4751  TIP3      OH2            23.9257947391       15.7520908928      -59.5306248289  TIP3      4687            0.0000000000
     22636      4751  TIP3      H1             23.2753925395       15.4299737403      -58.8783750714  TIP3      4687            0.0000000000
     22637      4751  TIP3      H2             23.3823253774       16.3709511638      -60.0392362846  TIP3      4687            0.0000000000
     22638      4752  TIP3      OH2            -6.2923204865       15.1690873749      -57.6434691895  TIP3      4688            0.0000000000
     22639      4752  TIP3      H1             -7.1054076896       15.4914365615      -58.0687232634  TIP3      4688            0.0000000000
     22640      4752  TIP3      H2             -6.1350899144       14.3377932896      -58.1510410768  TIP3      4688            0.0000000000
     22641      4753  TIP3      OH2           -12.9061887213       16.6075479963      -63.4115418430  TIP3      4689            0.0000000000
     22642      4753  TIP3      H1            -13.5842475954       15.9831628275      -63.0979548831  TIP3      4689            0.0000000000
     22643      4753  TIP3      H2            -12.3592419074       16.0460695124      -63.9660819338  TIP3      4689            0.0000000000
     22644      4754  TIP3      OH2            -7.7597938363       14.6171774462      -63.3753091071  TIP3      4690            0.0000000000
     22645      4754  TIP3      H1             -7.1672489086       15.2419572224      -63.8641244041  TIP3      4690            0.0000000000
     22646      4754  TIP3      H2             -8.6517001525       14.9924350638      -63.5613624334  TIP3      4690            0.0000000000
     22647      4755  TIP3      OH2            -6.1242832336       15.9271716767      -65.1030040280  TIP3      4691            0.0000000000
     22648      4755  TIP3      H1             -5.4320852604       15.3273792324      -65.4737546547  TIP3      4691            0.0000000000
     22649      4755  TIP3      H2             -5.5811354308       16.7362800583      -64.9411540926  TIP3      4691            0.0000000000
     22650      4756  TIP3      OH2           -20.5295899146       15.1735300858      -65.4902473956  TIP3      4692            0.0000000000
     22651      4756  TIP3      H1            -21.3012865239       15.0560532701      -66.0746640315  TIP3      4692            0.0000000000
     22652      4756  TIP3      H2            -20.0553880213       14.3238962268      -65.6176568013  TIP3      4692            0.0000000000
     22653      4757  TIP3      OH2           -21.7606046207       14.9416114742      -69.9481423704  TIP3      4693            0.0000000000
     22654      4757  TIP3      H1            -21.2668572864       15.6538508831      -70.3954337619  TIP3      4693            0.0000000000
     22655      4757  TIP3      H2            -22.2637386739       15.4611667020      -69.3048139953  TIP3      4693            0.0000000000
     22656      4758  TIP3      OH2           -16.1021678328       15.1423109340      -65.7484228158  TIP3      4694            0.0000000000
     22657      4758  TIP3      H1            -15.2069025112       15.4953659704      -65.8645571430  TIP3      4694            0.0000000000
     22658      4758  TIP3      H2            -16.0982834484       14.9279029497      -64.8164545986  TIP3      4694            0.0000000000
     22659      4759  TIP3      OH2           -10.3168974688       15.1693583743      -64.1598032815  TIP3      4695            0.0000000000
     22660      4759  TIP3      H1            -10.4255169271       15.3031320808      -65.1092816491  TIP3      4695            0.0000000000
     22661      4759  TIP3      H2            -10.7165933662       14.2759700669      -64.0232885425  TIP3      4695            0.0000000000
     22662      4760  TIP3      OH2            -9.1715217593       15.1802876908      -68.6223151068  TIP3      4696            0.0000000000
     22663      4760  TIP3      H1             -9.8713224503       15.8174742483      -68.4146304518  TIP3      4696            0.0000000000
     22664      4760  TIP3      H2             -9.4720868697       14.3643434516      -68.1461661372  TIP3      4696            0.0000000000
     22665      4761  TIP3      OH2           -19.9159872094       16.7506932881      -71.2532734012  TIP3      4697            0.0000000000
     22666      4761  TIP3      H1            -19.3337318790       16.2826578408      -71.8558781846  TIP3      4697            0.0000000000
     22667      4761  TIP3      H2            -19.2607488677       17.1595660690      -70.6490848354  TIP3      4697            0.0000000000
     22668      4762  TIP3      OH2           -14.8720906489       17.1265432235      -68.9091301233  TIP3      4698            0.0000000000
     22669      4762  TIP3      H1            -14.6725645797       16.5874868768      -68.1247296728  TIP3      4698            0.0000000000
     22670      4762  TIP3      H2            -14.8617647898       18.0141325988      -68.4916209037  TIP3      4698            0.0000000000
     22671      4763  TIP3      OH2           -20.6994816729       15.8034590956      -56.0450847891  TIP3      4699            0.0000000000
     22672      4763  TIP3      H1            -21.0851343380       14.9968383884      -55.6718372735  TIP3      4699            0.0000000000
     22673      4763  TIP3      H2            -19.7836932576       15.7307855611      -55.6877618641  TIP3      4699            0.0000000000
     22674      4764  TIP3      OH2           -18.6564543429       15.1595956308      -54.4203217230  TIP3      4700            0.0000000000
     22675      4764  TIP3      H1            -17.7723725093       14.8058971802      -54.6362644535  TIP3      4700            0.0000000000
     22676      4764  TIP3      H2            -19.0651692893       14.3626928874      -54.0384297975  TIP3      4700            0.0000000000
     22677      4765  TIP3      OH2           -10.2571425458       14.4372225799      -54.2777108011  TIP3      4701            0.0000000000
     22678      4765  TIP3      H1            -10.1733818533       13.9573579732      -53.4299198110  TIP3      4701            0.0000000000
     22679      4765  TIP3      H2             -9.3385634102       14.4020635217      -54.6159215869  TIP3      4701            0.0000000000
     22680      4766  TIP3      OH2            -1.2938366922       23.1230807045      -60.6622204886  TIP3      4702            0.0000000000
     22681      4766  TIP3      H1             -1.3505834494       22.5706564113      -59.8707123204  TIP3      4702            0.0000000000
     22682      4766  TIP3      H2             -0.7653379038       23.8764257523      -60.3727248265  TIP3      4702            0.0000000000
     22683      4767  TIP3      OH2            -3.7708277881       21.3991977281      -66.7319862350  TIP3      4703            0.0000000000
     22684      4767  TIP3      H1             -4.2959376588       22.2017732890      -66.7144359125  TIP3      4703            0.0000000000
     22685      4767  TIP3      H2             -4.3761453919       20.7828921828      -67.1712340178  TIP3      4703            0.0000000000
     22686      4768  TIP3      OH2            13.2187947227       17.6766910506      -61.0252404571  TIP3      4704            0.0000000000
     22687      4768  TIP3      H1             13.3785730749       18.2425254482      -60.2384763223  TIP3      4704            0.0000000000
     22688      4768  TIP3      H2             13.8169059667       18.1105116635      -61.6523072322  TIP3      4704            0.0000000000
     22689      4769  TIP3      OH2             7.8110431950       20.4935853871      -61.3853840532  TIP3      4705            0.0000000000
     22690      4769  TIP3      H1              7.9803842068       19.5348194759      -61.3938026640  TIP3      4705            0.0000000000
     22691      4769  TIP3      H2              7.7071867011       20.6927089782      -62.3318282432  TIP3      4705            0.0000000000
     22692      4770  TIP3      OH2             0.8892768932       18.6013225735      -64.1817084685  TIP3      4706            0.0000000000
     22693      4770  TIP3      H1              1.0151285135       19.4320347075      -64.6835313710  TIP3      4706            0.0000000000
     22694      4770  TIP3      H2              0.5142454235       18.0269321772      -64.8878347929  TIP3      4706            0.0000000000
     22695      4771  TIP3      OH2             8.6614913600       18.6564603591      -65.8200774455  TIP3      4707            0.0000000000
     22696      4771  TIP3      H1              9.2823996575       18.3334158257      -65.1284004221  TIP3      4707            0.0000000000
     22697      4771  TIP3      H2              9.2531038983       19.2441657207      -66.3131466985  TIP3      4707            0.0000000000
     22698      4772  TIP3      OH2            -2.5000650906       20.9254474466      -63.5051277276  TIP3      4708            0.0000000000
     22699      4772  TIP3      H1             -1.8101071882       20.4508199814      -63.0000610640  TIP3      4708            0.0000000000
     22700      4772  TIP3      H2             -2.3227020455       20.6212377718      -64.4032061858  TIP3      4708            0.0000000000
     22701      4773  TIP3      OH2             2.6233532009       22.3211017251      -64.0675933292  TIP3      4709            0.0000000000
     22702      4773  TIP3      H1              3.3673723812       21.7551311695      -63.7956132139  TIP3      4709            0.0000000000
     22703      4773  TIP3      H2              2.1529132769       21.7694386592      -64.7237907105  TIP3      4709            0.0000000000
     22704      4774  TIP3      OH2            13.5960579586       19.0487278861      -58.7349869276  TIP3      4710            0.0000000000
     22705      4774  TIP3      H1             13.0783203889       19.8774341534      -58.8366722233  TIP3      4710            0.0000000000
     22706      4774  TIP3      H2             13.6739784554       19.0060536915      -57.7691159053  TIP3      4710            0.0000000000
     22707      4775  TIP3      OH2            -0.1774083620       17.4383087811      -60.1404044812  TIP3      4711            0.0000000000
     22708      4775  TIP3      H1             -0.4498126798       18.0209009634      -60.8821345239  TIP3      4711            0.0000000000
     22709      4775  TIP3      H2             -0.8351047904       17.6993110729      -59.4530040226  TIP3      4711            0.0000000000
     22710      4776  TIP3      OH2            10.4923612301       18.0181740733      -63.8067850141  TIP3      4712            0.0000000000
     22711      4776  TIP3      H1             10.2669360635       17.2506134648      -63.2762854198  TIP3      4712            0.0000000000
     22712      4776  TIP3      H2             11.1406768590       18.4734074402      -63.2373636686  TIP3      4712            0.0000000000
     22713      4777  TIP3      OH2            -0.6028936162       19.3331981813      -62.1084241805  TIP3      4713            0.0000000000
     22714      4777  TIP3      H1              0.0357071842       19.9998532490      -61.7811354906  TIP3      4713            0.0000000000
     22715      4777  TIP3      H2             -0.0918465210       18.9437364525      -62.8645655908  TIP3      4713            0.0000000000
     22716      4778  TIP3      OH2            10.7864935076       16.6802113276      -60.1593024264  TIP3      4714            0.0000000000
     22717      4778  TIP3      H1             10.0736605681       17.3242661148      -60.2782637104  TIP3      4714            0.0000000000
     22718      4778  TIP3      H2             11.5173621676       17.0952525587      -60.6651674597  TIP3      4714            0.0000000000
     22719      4779  TIP3      OH2             3.7185260577       14.8326796686      -62.6952245758  TIP3      4715            0.0000000000
     22720      4779  TIP3      H1              3.5484149385       13.8719959889      -62.7768380151  TIP3      4715            0.0000000000
     22721      4779  TIP3      H2              2.8513069635       15.1556748030      -62.3616676310  TIP3      4715            0.0000000000
     22722      4780  TIP3      OH2             6.1643459546       22.1091377244      -71.1709614397  TIP3      4716            0.0000000000
     22723      4780  TIP3      H1              6.8175914581       22.1874941980      -70.4487343485  TIP3      4716            0.0000000000
     22724      4780  TIP3      H2              6.5622035010       21.4161166435      -71.7146776121  TIP3      4716            0.0000000000
     22725      4781  TIP3      OH2            13.1067068811       22.9372383071      -60.1413704411  TIP3      4717            0.0000000000
     22726      4781  TIP3      H1             12.7253838445       23.8074238465      -59.9976486501  TIP3      4717            0.0000000000
     22727      4781  TIP3      H2             13.9334225812       23.1972939343      -60.5792214442  TIP3      4717            0.0000000000
     22728      4782  TIP3      OH2             9.4357033365       22.0398284173      -58.1337088464  TIP3      4718            0.0000000000
     22729      4782  TIP3      H1              9.4165794767       22.8864849248      -57.6798955332  TIP3      4718            0.0000000000
     22730      4782  TIP3      H2              8.8235014724       22.2434989928      -58.8790685436  TIP3      4718            0.0000000000
     22731      4783  TIP3      OH2             1.7322948689      -23.8282919614      -61.4955923751  TIP3      4719            0.0000000000
     22732      4783  TIP3      H1              1.8575411938      -23.6464168532      -62.4546050436  TIP3      4719            0.0000000000
     22733      4783  TIP3      H2              1.6260604808      -22.9173859441      -61.2018635191  TIP3      4719            0.0000000000
     22734      4784  TIP3      OH2             8.2492272341       22.9272366555      -69.8232645367  TIP3      4720            0.0000000000
     22735      4784  TIP3      H1              8.7363752957       23.0440905510      -68.9972929143  TIP3      4720            0.0000000000
     22736      4784  TIP3      H2              8.6919432504       23.5700912558      -70.3829339781  TIP3      4720            0.0000000000
     22737      4785  TIP3      OH2            12.1546238690       14.7309189807      -69.6787912734  TIP3      4721            0.0000000000
     22738      4785  TIP3      H1             11.1920353259       14.7881737110      -69.4726241663  TIP3      4721            0.0000000000
     22739      4785  TIP3      H2             12.2907587363       15.6245066414      -70.0239885299  TIP3      4721            0.0000000000
     22740      4786  TIP3      OH2            11.2964717073       20.8629950187      -55.9121819355  TIP3      4722            0.0000000000
     22741      4786  TIP3      H1             10.9037498435       21.3316417339      -56.6614227412  TIP3      4722            0.0000000000
     22742      4786  TIP3      H2             11.2801699093       19.9389048753      -56.2107457863  TIP3      4722            0.0000000000
     22743      4787  TIP3      OH2             1.1600646213       15.7442584174      -61.9543509872  TIP3      4723            0.0000000000
     22744      4787  TIP3      H1              0.2522718844       15.5932111670      -62.2978564005  TIP3      4723            0.0000000000
     22745      4787  TIP3      H2              1.0004727104       16.5428103074      -61.4248327586  TIP3      4723            0.0000000000
     22746      4788  TIP3      OH2             5.8133158575       15.3644182332      -58.5883623387  TIP3      4724            0.0000000000
     22747      4788  TIP3      H1              6.1927008414       14.9418227908      -57.7944766172  TIP3      4724            0.0000000000
     22748      4788  TIP3      H2              4.8385654043       15.2833821772      -58.4400576019  TIP3      4724            0.0000000000
     22749      4789  TIP3      OH2             9.0460966763       19.2886553152      -57.6630034625  TIP3      4725            0.0000000000
     22750      4789  TIP3      H1              8.5057797294       19.0469612535      -56.8698765602  TIP3      4725            0.0000000000
     22751      4789  TIP3      H2              8.8249134683       20.2049533940      -57.8822719838  TIP3      4725            0.0000000000
     22752      4790  TIP3      OH2             5.4542977893       17.9376274282      -71.1769249259  TIP3      4726            0.0000000000
     22753      4790  TIP3      H1              5.0707097209       17.9156312772      -70.2786422584  TIP3      4726            0.0000000000
     22754      4790  TIP3      H2              5.1296557924       17.1010450395      -71.5253698077  TIP3      4726            0.0000000000
     22755      4791  TIP3      OH2             1.2373165995       20.5744551200      -60.5502825497  TIP3      4727            0.0000000000
     22756      4791  TIP3      H1              0.4430768738       20.6994062406      -60.0042950396  TIP3      4727            0.0000000000
     22757      4791  TIP3      H2              1.2548498603       21.4297891556      -61.0458880962  TIP3      4727            0.0000000000
     22758      4792  TIP3      OH2             1.1710596949       20.7295532603      -65.8199499839  TIP3      4728            0.0000000000
     22759      4792  TIP3      H1              0.2261744620       20.5491921281      -66.0059254083  TIP3      4728            0.0000000000
     22760      4792  TIP3      H2              1.5687669112       20.5263589607      -66.6921130263  TIP3      4728            0.0000000000
     22761      4793  TIP3      OH2             6.8507275055       21.3551434978      -67.0144286289  TIP3      4729            0.0000000000
     22762      4793  TIP3      H1              6.2437213461       22.0164530109      -67.3766877041  TIP3      4729            0.0000000000
     22763      4793  TIP3      H2              7.4123703461       21.0895151696      -67.7701468362  TIP3      4729            0.0000000000
     22764      4794  TIP3      OH2             5.8817394281       21.5417539976      -55.6475775683  TIP3      4730            0.0000000000
     22765      4794  TIP3      H1              5.2844043854       20.8085232582      -55.3431546476  TIP3      4730            0.0000000000
     22766      4794  TIP3      H2              6.6570657796       21.3790239094      -55.0820872692  TIP3      4730            0.0000000000
     22767      4795  TIP3      OH2             7.6971736618       20.7634580640      -64.1788824623  TIP3      4731            0.0000000000
     22768      4795  TIP3      H1              7.4426930188       21.2737659285      -64.9636076241  TIP3      4731            0.0000000000
     22769      4795  TIP3      H2              7.8590733297       19.8931650000      -64.5969116948  TIP3      4731            0.0000000000
     22770      4796  TIP3      OH2            -1.1567035140       21.0090543085      -58.9629332330  TIP3      4732            0.0000000000
     22771      4796  TIP3      H1             -1.1183993808       21.3575333447      -58.0623931431  TIP3      4732            0.0000000000
     22772      4796  TIP3      H2             -1.5648807419       20.1375718565      -58.8241031229  TIP3      4732            0.0000000000
     22773      4797  TIP3      OH2             2.2131550985       18.7166051637      -71.7846837770  TIP3      4733            0.0000000000
     22774      4797  TIP3      H1              1.8411015665       17.9230979755      -71.3653732076  TIP3      4733            0.0000000000
     22775      4797  TIP3      H2              1.7306011871       18.7307339893      -72.6135207116  TIP3      4733            0.0000000000
     22776      4798  TIP3      OH2            -4.4626238165       18.0010661865      -65.0048211611  TIP3      4734            0.0000000000
     22777      4798  TIP3      H1             -3.7791339447       18.0104050071      -64.3018417003  TIP3      4734            0.0000000000
     22778      4798  TIP3      H2             -3.9911566009       17.6852884389      -65.7901241005  TIP3      4734            0.0000000000
     22779      4799  TIP3      OH2            -3.3400667658       18.6862652625      -69.7887367647  TIP3      4735            0.0000000000
     22780      4799  TIP3      H1             -2.6780178146       19.3038189998      -70.1725698119  TIP3      4735            0.0000000000
     22781      4799  TIP3      H2             -3.8974776297       19.3745779627      -69.3519801570  TIP3      4735            0.0000000000
     22782      4800  TIP3      OH2             7.0396235877       22.3213324212      -59.5208380487  TIP3      4736            0.0000000000
     22783      4800  TIP3      H1              7.3046417695       21.7619486671      -60.2787054963  TIP3      4736            0.0000000000
     22784      4800  TIP3      H2              6.4514846033       21.7340086933      -59.0073967488  TIP3      4736            0.0000000000
     22785      4801  TIP3      OH2             3.7762687819       18.3628584632      -64.8192440802  TIP3      4737            0.0000000000
     22786      4801  TIP3      H1              2.8410925175       18.3693948754      -64.5411713001  TIP3      4737            0.0000000000
     22787      4801  TIP3      H2              4.2300218925       18.2147759931      -63.9751893202  TIP3      4737            0.0000000000
     22788      4802  TIP3      OH2            -1.4130700570       19.8618652404      -65.8832110628  TIP3      4738            0.0000000000
     22789      4802  TIP3      H1             -2.2723981333       20.0920706116      -66.2867422482  TIP3      4738            0.0000000000
     22790      4802  TIP3      H2             -1.1464782264       19.0549450922      -66.3597512979  TIP3      4738            0.0000000000
     22791      4803  TIP3      OH2             2.1773271819       20.0471065468      -68.2809227004  TIP3      4739            0.0000000000
     22792      4803  TIP3      H1              3.1443662815       20.0630812553      -68.1755104018  TIP3      4739            0.0000000000
     22793      4803  TIP3      H2              1.9992590933       20.6325984739      -69.0442577137  TIP3      4739            0.0000000000
     22794      4804  TIP3      OH2             8.1776540863       17.6157386538      -61.5790151274  TIP3      4740            0.0000000000
     22795      4804  TIP3      H1              7.5027960985       17.6356873747      -60.8650592868  TIP3      4740            0.0000000000
     22796      4804  TIP3      H2              7.6621473894       17.3375556402      -62.3493605465  TIP3      4740            0.0000000000
     22797      4805  TIP3      OH2             0.8539538623       21.2266179154      -70.7261384474  TIP3      4741            0.0000000000
     22798      4805  TIP3      H1              0.4030365437       20.7464209953      -71.4225267011  TIP3      4741            0.0000000000
     22799      4805  TIP3      H2              1.7295588671       21.3770074659      -71.1284791254  TIP3      4741            0.0000000000
     22800      4806  TIP3      OH2             4.9393573271       21.0751281764      -62.9757189678  TIP3      4742            0.0000000000
     22801      4806  TIP3      H1              5.6466584391       20.6088642566      -63.4330225892  TIP3      4742            0.0000000000
     22802      4806  TIP3      H2              4.8841926212       20.6023928889      -62.1338279481  TIP3      4742            0.0000000000
     22803      4807  TIP3      OH2             0.0470873639       17.2434124755      -66.4253184443  TIP3      4743            0.0000000000
     22804      4807  TIP3      H1             -0.2634133542       16.3225913919      -66.4434388079  TIP3      4743            0.0000000000
     22805      4807  TIP3      H2              0.8177230774       17.1906417517      -67.0080145594  TIP3      4743            0.0000000000
     22806      4808  TIP3      OH2             3.6945282869       19.4545577105      -60.5256388412  TIP3      4744            0.0000000000
     22807      4808  TIP3      H1              2.8719504325       19.9733573261      -60.4353024421  TIP3      4744            0.0000000000
     22808      4808  TIP3      H2              4.2545477855       19.7958221992      -59.8065809406  TIP3      4744            0.0000000000
     22809      4809  TIP3      OH2             8.1133833730       18.4813625043      -70.6144496451  TIP3      4745            0.0000000000
     22810      4809  TIP3      H1              7.1590231545       18.5702937884      -70.7856353511  TIP3      4745            0.0000000000
     22811      4809  TIP3      H2              8.4218161687       19.3353050530      -70.2664048769  TIP3      4745            0.0000000000
     22812      4810  TIP3      OH2             8.7952298020       20.5146436106      -68.9084320348  TIP3      4746            0.0000000000
     22813      4810  TIP3      H1              9.6909557755       20.2441970949      -68.5916368854  TIP3      4746            0.0000000000
     22814      4810  TIP3      H2              8.9699144505       21.2523058089      -69.5132927511  TIP3      4746            0.0000000000
     22815      4811  TIP3      OH2             3.2796098894       22.0006027967      -55.1793665787  TIP3      4747            0.0000000000
     22816      4811  TIP3      H1              2.9562367261       22.3124764203      -56.0366261097  TIP3      4747            0.0000000000
     22817      4811  TIP3      H2              4.1818516316       22.3684150433      -55.1146365221  TIP3      4747            0.0000000000
     22818      4812  TIP3      OH2            13.7152999356       20.5454632585      -69.1805873742  TIP3      4748            0.0000000000
     22819      4812  TIP3      H1             13.1229169855       20.2507713644      -69.9073039746  TIP3      4748            0.0000000000
     22820      4812  TIP3      H2             13.7792746121       21.4743049647      -69.4486251129  TIP3      4748            0.0000000000
     22821      4813  TIP3      OH2            -2.4098618140      -23.4852567710      -71.5495815125  TIP3      4749            0.0000000000
     22822      4813  TIP3      H1             -1.7592463435      -23.0860089309      -70.9451247342  TIP3      4749            0.0000000000
     22823      4813  TIP3      H2             -3.1989245293      -23.3089141406      -71.0119068785  TIP3      4749            0.0000000000
     22824      4814  TIP3      OH2            -1.9589857509       18.2138796444      -58.2018658965  TIP3      4750            0.0000000000
     22825      4814  TIP3      H1             -2.8713081048       18.5431382661      -58.2101406318  TIP3      4750            0.0000000000
     22826      4814  TIP3      H2             -2.0703959518       17.3890060153      -57.7082210509  TIP3      4750            0.0000000000
     22827      4815  TIP3      OH2             6.7526357912       17.9569017188      -59.1908137478  TIP3      4751            0.0000000000
     22828      4815  TIP3      H1              7.4624444108       18.0840043328      -58.5556172776  TIP3      4751            0.0000000000
     22829      4815  TIP3      H2              6.3960800579       17.0777499416      -58.9573699327  TIP3      4751            0.0000000000
     22830      4816  TIP3      OH2             7.4807715889       17.5763327698      -68.1106425657  TIP3      4752            0.0000000000
     22831      4816  TIP3      H1              7.7559343697       17.9836420080      -68.9581906297  TIP3      4752            0.0000000000
     22832      4816  TIP3      H2              8.0717707280       17.9926754286      -67.4679469808  TIP3      4752            0.0000000000
     22833      4817  TIP3      OH2             4.7330487924       19.2518211657      -67.3266669912  TIP3      4753            0.0000000000
     22834      4817  TIP3      H1              5.4638247035       19.8855727761      -67.2921182496  TIP3      4753            0.0000000000
     22835      4817  TIP3      H2              4.4201875176       19.1745600387      -66.4032799702  TIP3      4753            0.0000000000
     22836      4818  TIP3      OH2             5.2986899089       20.3523848737      -58.0623032183  TIP3      4754            0.0000000000
     22837      4818  TIP3      H1              5.3638584010       20.8394718446      -57.2238890434  TIP3      4754            0.0000000000
     22838      4818  TIP3      H2              5.9334862086       19.6224450808      -57.9979991428  TIP3      4754            0.0000000000
     22839      4819  TIP3      OH2             5.5652045401       16.3217345324      -66.4705050237  TIP3      4755            0.0000000000
     22840      4819  TIP3      H1              5.2317197881       16.9694483126      -65.8226128375  TIP3      4755            0.0000000000
     22841      4819  TIP3      H2              6.2619278954       16.8790970976      -66.8982532506  TIP3      4755            0.0000000000
     22842      4820  TIP3      OH2             1.2131888770       17.4138857934      -69.6647455920  TIP3      4756            0.0000000000
     22843      4820  TIP3      H1              1.1949244911       18.3347398005      -69.3471416982  TIP3      4756            0.0000000000
     22844      4820  TIP3      H2              2.1385490241       17.1832409112      -69.4712664884  TIP3      4756            0.0000000000
     22845      4821  TIP3      OH2            11.4233890770       18.1416603853      -57.2723314026  TIP3      4757            0.0000000000
     22846      4821  TIP3      H1             10.5030227335       18.4620292272      -57.4049819077  TIP3      4757            0.0000000000
     22847      4821  TIP3      H2             11.7509838345       18.1626775520      -58.1895491385  TIP3      4757            0.0000000000
     22848      4822  TIP3      OH2            10.0608841571       21.7922335807      -63.3928290279  TIP3      4758            0.0000000000
     22849      4822  TIP3      H1              9.1673420559       21.4301851439      -63.4871483180  TIP3      4758            0.0000000000
     22850      4822  TIP3      H2             10.4783351976       21.1860548426      -62.7439251078  TIP3      4758            0.0000000000
     22851      4823  TIP3      OH2            -2.2108043223       20.5808309218      -71.3486335713  TIP3      4759            0.0000000000
     22852      4823  TIP3      H1             -2.1929967132       21.5649714502      -71.3515593208  TIP3      4759            0.0000000000
     22853      4823  TIP3      H2             -3.0156704078       20.4113760078      -71.8510974588  TIP3      4759            0.0000000000
     22854      4824  TIP3      OH2            -1.3803346275       15.3544145881      -62.7596365904  TIP3      4760            0.0000000000
     22855      4824  TIP3      H1             -1.5375819636       15.3619388293      -63.7303581015  TIP3      4760            0.0000000000
     22856      4824  TIP3      H2             -1.7680929746       14.4838019861      -62.5280292288  TIP3      4760            0.0000000000
     22857      4825  TIP3      OH2            -2.4773702211       22.7075878849      -55.0619356506  TIP3      4761            0.0000000000
     22858      4825  TIP3      H1             -1.9965951130       21.8786591824      -55.0006940296  TIP3      4761            0.0000000000
     22859      4825  TIP3      H2             -2.6617561918       22.9282746444      -54.1168717144  TIP3      4761            0.0000000000
     22860      4826  TIP3      OH2             1.4995317853       21.9396657203      -57.5468553006  TIP3      4762            0.0000000000
     22861      4826  TIP3      H1              0.9219058440       22.6872908540      -57.3364112251  TIP3      4762            0.0000000000
     22862      4826  TIP3      H2              1.8671872375       22.1635852576      -58.4178007253  TIP3      4762            0.0000000000
     22863      4827  TIP3      OH2             3.3249516675       22.0838412266      -71.6458426354  TIP3      4763            0.0000000000
     22864      4827  TIP3      H1              3.1607810356       22.2089469255      -72.5930978875  TIP3      4763            0.0000000000
     22865      4827  TIP3      H2              4.2448606425       22.3753447720      -71.5609144339  TIP3      4763            0.0000000000
     22866      4828  TIP3      OH2             1.9315083344       19.1759348941      -56.6168663153  TIP3      4764            0.0000000000
     22867      4828  TIP3      H1              2.0671907807       18.4759887320      -57.2783601012  TIP3      4764            0.0000000000
     22868      4828  TIP3      H2              1.8831084639       19.9866545738      -57.1500239743  TIP3      4764            0.0000000000
     22869      4829  TIP3      OH2             2.3400564668       17.5496754773      -59.0552444562  TIP3      4765            0.0000000000
     22870      4829  TIP3      H1              2.8501502884       18.0517825179      -59.7304729726  TIP3      4765            0.0000000000
     22871      4829  TIP3      H2              1.4303843548       17.6124480266      -59.4199656400  TIP3      4765            0.0000000000
     22872      4830  TIP3      OH2             4.1162534806      -24.0516034976      -59.0286266809  TIP3      4766            0.0000000000
     22873      4830  TIP3      H1              4.9444147826      -24.0204566631      -59.5305026481  TIP3      4766            0.0000000000
     22874      4830  TIP3      H2              3.7558551180      -23.1825343272      -59.1773621973  TIP3      4766            0.0000000000
     22875      4831  TIP3      OH2             8.2825779546       20.8518039207      -53.8371349246  TIP3      4767            0.0000000000
     22876      4831  TIP3      H1              8.4308791251       19.9009081187      -53.9530874315  TIP3      4767            0.0000000000
     22877      4831  TIP3      H2              9.1943217519       21.1827319529      -53.8616620927  TIP3      4767            0.0000000000
     22878      4832  TIP3      OH2             0.3174130360       20.5348375598      -54.6949124953  TIP3      4768            0.0000000000
     22879      4832  TIP3      H1             -0.3795717529       19.8567851109      -54.8122078092  TIP3      4768            0.0000000000
     22880      4832  TIP3      H2              1.0311316302       20.1929789266      -55.2712727408  TIP3      4768            0.0000000000
     22881      4833  TIP3      OH2             3.1284909937       15.0650325007      -58.6651242329  TIP3      4769            0.0000000000
     22882      4833  TIP3      H1              2.9053688261       16.0245997846      -58.7545790790  TIP3      4769            0.0000000000
     22883      4833  TIP3      H2              2.3825068491       14.6825290352      -59.1623757164  TIP3      4769            0.0000000000
     22884      4834  TIP3      OH2             4.4260268202       19.3567451357      -55.0079879100  TIP3      4770            0.0000000000
     22885      4834  TIP3      H1              4.0607782820       19.1904484137      -54.1153109894  TIP3      4770            0.0000000000
     22886      4834  TIP3      H2              3.6393114188       19.1737537103      -55.5464148172  TIP3      4770            0.0000000000
     22887      4835  TIP3      OH2             7.1349620504       18.5925005578      -55.8635338000  TIP3      4771            0.0000000000
     22888      4835  TIP3      H1              6.1660561236       18.6379366225      -55.7877857130  TIP3      4771            0.0000000000
     22889      4835  TIP3      H2              7.3501402618       17.9272060538      -55.1797226910  TIP3      4771            0.0000000000
     22890      4836  TIP3      OH2             8.6583330322       17.1742585007      -54.0371789238  TIP3      4772            0.0000000000
     22891      4836  TIP3      H1              8.6508695212       16.1939446867      -53.9954816955  TIP3      4772            0.0000000000
     22892      4836  TIP3      H2              8.4664614464       17.4661545662      -53.1242611748  TIP3      4772            0.0000000000
     22893      4837  TIP3      OH2            -1.5442188715       18.4784365223      -54.8594878969  TIP3      4773            0.0000000000
     22894      4837  TIP3      H1             -1.3292605830       17.7386818726      -55.4570028664  TIP3      4773            0.0000000000
     22895      4837  TIP3      H2             -1.6664994174       18.0118023159      -54.0078877344  TIP3      4773            0.0000000000
     22896      4838  TIP3      OH2             3.3320236723       14.4961905312      -55.9505686079  TIP3      4774            0.0000000000
     22897      4838  TIP3      H1              3.9961413690       13.7802769738      -55.9431284108  TIP3      4774            0.0000000000
     22898      4838  TIP3      H2              3.2061670510       14.5868862789      -56.9177828618  TIP3      4774            0.0000000000
     22899      4839  TIP3      OH2             3.6869025797       16.0775812574      -53.7875463091  TIP3      4775            0.0000000000
     22900      4839  TIP3      H1              3.5031279001       15.5578032421      -54.6098855334  TIP3      4775            0.0000000000
     22901      4839  TIP3      H2              3.1039300205       16.8558365466      -53.9026895029  TIP3      4775            0.0000000000
     22902      4840  TIP3      OH2            12.2765047716       20.5515799685      -71.4930628638  TIP3      4776            0.0000000000
     22903      4840  TIP3      H1             12.2259326259       21.2612625277      -72.1558283504  TIP3      4776            0.0000000000
     22904      4840  TIP3      H2             11.9073136163       19.7923759454      -71.9929338703  TIP3      4776            0.0000000000
     22905      4841  TIP3      OH2            11.3677317301       22.0602698347      -65.9616206871  TIP3      4777            0.0000000000
     22906      4841  TIP3      H1             11.2002334683       21.1070807136      -65.9780304884  TIP3      4777            0.0000000000
     22907      4841  TIP3      H2             11.1058745587       22.2827477326      -65.0553488716  TIP3      4777            0.0000000000
     22908      4842  TIP3      OH2            13.7257687387       21.9699982049      -55.5311355430  TIP3      4778            0.0000000000
     22909      4842  TIP3      H1             12.8654818522       21.5558887199      -55.7043526844  TIP3      4778            0.0000000000
     22910      4842  TIP3      H2             14.3128977831       21.2042944386      -55.6783306790  TIP3      4778            0.0000000000
     22911      4843  TIP3      OH2            11.3504821889       18.1372094488      -72.2587294100  TIP3      4779            0.0000000000
     22912      4843  TIP3      H1             11.9991377731       17.5946921284      -71.7742180511  TIP3      4779            0.0000000000
     22913      4843  TIP3      H2             10.5463101218       17.6107473982      -72.2415606096  TIP3      4779            0.0000000000
     22914      4844  TIP3      OH2            10.9831890762       19.7150476394      -67.3973643734  TIP3      4780            0.0000000000
     22915      4844  TIP3      H1             11.2748609217       18.7810118668      -67.2935590081  TIP3      4780            0.0000000000
     22916      4844  TIP3      H2             11.7894326652       20.0864359658      -67.7805617099  TIP3      4780            0.0000000000
     22917      4845  TIP3      OH2            11.7021061301       20.1051538237      -61.9540781690  TIP3      4781            0.0000000000
     22918      4845  TIP3      H1             12.6387178219       20.4009612483      -62.0259845383  TIP3      4781            0.0000000000
     22919      4845  TIP3      H2             11.4903224311       20.4056220716      -61.0633539158  TIP3      4781            0.0000000000
     22920      4846  TIP3      OH2            11.7294722941       20.9382836276      -59.0712051705  TIP3      4782            0.0000000000
     22921      4846  TIP3      H1             10.8109519694       21.2349919788      -58.9073474947  TIP3      4782            0.0000000000
     22922      4846  TIP3      H2             12.1601754681       21.7152703102      -59.5175965301  TIP3      4782            0.0000000000
     22923      4847  TIP3      OH2            -3.9719237449       19.4188187005      -55.6942920900  TIP3      4783            0.0000000000
     22924      4847  TIP3      H1             -3.0433723313       19.2158852496      -55.4662050449  TIP3      4783            0.0000000000
     22925      4847  TIP3      H2             -4.4465775053       18.6090094567      -55.4118287130  TIP3      4783            0.0000000000
     22926      4848  TIP3      OH2            14.0368438651       15.0218448150      -53.8941643645  TIP3      4784            0.0000000000
     22927      4848  TIP3      H1             14.3859101142       14.3476481592      -54.5013825428  TIP3      4784            0.0000000000
     22928      4848  TIP3      H2             14.0934511262       15.8169719201      -54.4636928444  TIP3      4784            0.0000000000
     22929      4849  TIP3      OH2            11.7157398535       16.9486486316      -67.4239727741  TIP3      4785            0.0000000000
     22930      4849  TIP3      H1             11.9569017287       16.5480375184      -66.5576422126  TIP3      4785            0.0000000000
     22931      4849  TIP3      H2             11.1012313215       16.2902275828      -67.8074524296  TIP3      4785            0.0000000000
     22932      4850  TIP3      OH2            -2.8064308590       17.7488279037      -62.8281923929  TIP3      4786            0.0000000000
     22933      4850  TIP3      H1             -2.3538956450       16.9151491859      -62.5950214989  TIP3      4786            0.0000000000
     22934      4850  TIP3      H2             -2.2211093823       18.4248889278      -62.4597006861  TIP3      4786            0.0000000000
     22935      4851  TIP3      OH2            -4.5255454741       20.7500615603      -61.8296515442  TIP3      4787            0.0000000000
     22936      4851  TIP3      H1             -3.9546086677       20.5062048401      -62.5894992788  TIP3      4787            0.0000000000
     22937      4851  TIP3      H2             -4.0708253868       21.5607417650      -61.5621257211  TIP3      4787            0.0000000000
     22938      4852  TIP3      OH2            13.5354513399       17.1162127379      -55.5338402426  TIP3      4788            0.0000000000
     22939      4852  TIP3      H1             12.6044576162       17.4113499436      -55.5778947188  TIP3      4788            0.0000000000
     22940      4852  TIP3      H2             13.5362264821       16.5542922877      -56.3245131801  TIP3      4788            0.0000000000
     22941      4853  TIP3      OH2            13.5592016390       17.0173078623      -70.9227495259  TIP3      4789            0.0000000000
     22942      4853  TIP3      H1             14.0048106984       16.2961237500      -71.3846719604  TIP3      4789            0.0000000000
     22943      4853  TIP3      H2             14.3045350474       17.6105756821      -70.7369262374  TIP3      4789            0.0000000000
     22944      4854  TIP3      OH2            -4.1840600591       17.0327757352      -67.7483002293  TIP3      4790            0.0000000000
     22945      4854  TIP3      H1             -5.1289153798       17.2142330893      -67.8636778175  TIP3      4790            0.0000000000
     22946      4854  TIP3      H2             -3.7789784891       17.5436361144      -68.4683441374  TIP3      4790            0.0000000000
     22947      4855  TIP3      OH2            -4.2149135056       15.6664859072      -59.4326778422  TIP3      4791            0.0000000000
     22948      4855  TIP3      H1             -4.8809307543       15.4680078623      -58.7509092787  TIP3      4791            0.0000000000
     22949      4855  TIP3      H2             -4.6723306327       16.3336010558      -59.9825294922  TIP3      4791            0.0000000000
     22950      4856  TIP3      OH2            12.5613259671       15.1704384380      -57.6410864159  TIP3      4792            0.0000000000
     22951      4856  TIP3      H1             11.7485136636       15.4922826108      -58.0673887245  TIP3      4792            0.0000000000
     22952      4856  TIP3      H2             12.7201962830       14.3396129682      -58.1485569432  TIP3      4792            0.0000000000
     22953      4857  TIP3      OH2             5.9510878514       16.6055076818      -63.3936222229  TIP3      4793            0.0000000000
     22954      4857  TIP3      H1              5.2688426677       15.9794740630      -63.0985287634  TIP3      4793            0.0000000000
     22955      4857  TIP3      H2              6.4934993781       16.0545282622      -63.9679049036  TIP3      4793            0.0000000000
     22956      4858  TIP3      OH2            11.0999514560       14.6219458977      -63.3762665625  TIP3      4794            0.0000000000
     22957      4858  TIP3      H1             11.6913301942       15.2441612095      -63.8665738895  TIP3      4794            0.0000000000
     22958      4858  TIP3      H2             10.2072711549       14.9918459697      -63.5618797741  TIP3      4794            0.0000000000
     22959      4859  TIP3      OH2            12.7339859753       15.9260794572      -65.0993678680  TIP3      4795            0.0000000000
     22960      4859  TIP3      H1             13.4246244228       15.3280553444      -65.4762194653  TIP3      4795            0.0000000000
     22961      4859  TIP3      H2             13.2746183604       16.7375330275      -64.9435318224  TIP3      4795            0.0000000000
     22962      4860  TIP3      OH2            -1.6779685831       15.2031968164      -65.4996602254  TIP3      4796            0.0000000000
     22963      4860  TIP3      H1             -2.4677406184       15.0557031825      -66.0496547685  TIP3      4796            0.0000000000
     22964      4860  TIP3      H2             -1.2355164040       14.3356578222      -65.5999877257  TIP3      4796            0.0000000000
     22965      4861  TIP3      OH2            -2.9719295026       14.9878158535      -69.9581407160  TIP3      4797            0.0000000000
     22966      4861  TIP3      H1             -2.3927084124       15.6579193298      -70.3730854355  TIP3      4797            0.0000000000
     22967      4861  TIP3      H2             -3.4426120384       15.5187366351      -69.2898859859  TIP3      4797            0.0000000000
     22968      4862  TIP3      OH2             2.7548506621       15.1402366279      -65.7485154323  TIP3      4798            0.0000000000
     22969      4862  TIP3      H1              3.6501585710       15.4966341803      -65.8644408952  TIP3      4798            0.0000000000
     22970      4862  TIP3      H2              2.7560156187       14.9341542750      -64.8152842424  TIP3      4798            0.0000000000
     22971      4863  TIP3      OH2             8.5431185364       15.1646345438      -64.1600582932  TIP3      4799            0.0000000000
     22972      4863  TIP3      H1              8.4320521781       15.3024044759      -65.1074604853  TIP3      4799            0.0000000000
     22973      4863  TIP3      H2              8.1328286919       14.2776251936      -64.0192830065  TIP3      4799            0.0000000000
     22974      4864  TIP3      OH2             9.7774675294       15.1866264136      -68.4914341259  TIP3      4800            0.0000000000
     22975      4864  TIP3      H1              9.0143658836       15.7695475277      -68.6213911477  TIP3      4800            0.0000000000
     22976      4864  TIP3      H2              9.3591354847       14.3519132155      -68.1891149610  TIP3      4800            0.0000000000
     22977      4865  TIP3      OH2            -1.1136355568       16.7135957317      -71.2615752355  TIP3      4801            0.0000000000
     22978      4865  TIP3      H1             -0.4940103292       16.2936795940      -71.8650559472  TIP3      4801            0.0000000000
     22979      4865  TIP3      H2             -0.4885432435       17.1850006880      -70.6683029054  TIP3      4801            0.0000000000
     22980      4866  TIP3      OH2             3.9187886281       17.1251140252      -68.8938127705  TIP3      4802            0.0000000000
     22981      4866  TIP3      H1              4.1992800783       16.5799949549      -68.1410982879  TIP3      4802            0.0000000000
     22982      4866  TIP3      H2              4.0114346524       18.0135145540      -68.4902579701  TIP3      4802            0.0000000000
     22983      4867  TIP3      OH2            -1.8056493536       15.7840895404      -56.0944084910  TIP3      4803            0.0000000000
     22984      4867  TIP3      H1             -2.2261456739       14.9824127784      -55.7329090549  TIP3      4803            0.0000000000
     22985      4867  TIP3      H2             -0.9131190408       15.7191820667      -55.6766099137  TIP3      4803            0.0000000000
     22986      4868  TIP3      OH2             0.1775871611       15.1762032544      -54.4016697741  TIP3      4804            0.0000000000
     22987      4868  TIP3      H1              1.0666103747       14.8415046684      -54.6401685346  TIP3      4804            0.0000000000
     22988      4868  TIP3      H2             -0.1911938164       14.3579154304      -54.0154165828  TIP3      4804            0.0000000000
     22989      4869  TIP3      OH2             8.5975243769       14.4358415037      -54.2786571377  TIP3      4805            0.0000000000
     22990      4869  TIP3      H1              8.6825371797       13.9574792503      -53.4300503821  TIP3      4805            0.0000000000
     22991      4869  TIP3      H2              9.5168982445       14.4015872517      -54.6161508927  TIP3      4805            0.0000000000
     22992      4870  TIP3      OH2            17.5614766066       23.1204935997      -60.6553697254  TIP3      4806            0.0000000000
     22993      4870  TIP3      H1             17.5049678880       22.5716919741      -59.8608082479  TIP3      4806            0.0000000000
     22994      4870  TIP3      H2             18.0990889814       23.8671295156      -60.3695282955  TIP3      4806            0.0000000000
     22995      4871  TIP3      OH2            15.0702602368       21.4116719060      -66.7490667359  TIP3      4807            0.0000000000
     22996      4871  TIP3      H1             14.5387547105       22.2095064798      -66.7221577423  TIP3      4807            0.0000000000
     22997      4871  TIP3      H2             14.4685022228       20.7860695397      -67.1796394560  TIP3      4807            0.0000000000
     22998      4872  TIP3      OH2            19.5450909034       18.5889863351      -64.1481512155  TIP3      4808            0.0000000000
     22999      4872  TIP3      H1             19.8980909220       19.3743140949      -64.6243005419  TIP3      4808            0.0000000000
     23000      4872  TIP3      H2             19.2804829407       18.0261113898      -64.9109500343  TIP3      4808            0.0000000000
     23001      4873  TIP3      OH2            16.3737856537       20.9208968768      -63.5015679212  TIP3      4809            0.0000000000
     23002      4873  TIP3      H1             17.0667611380       20.4390308500      -63.0081382351  TIP3      4809            0.0000000000
     23003      4873  TIP3      H2             16.5414084538       20.6151416680      -64.4022959031  TIP3      4809            0.0000000000
     23004      4874  TIP3      OH2            21.4685409552       22.3246882617      -64.1163033239  TIP3      4810            0.0000000000
     23005      4874  TIP3      H1             22.1879210376       21.7601016042      -63.7738307447  TIP3      4810            0.0000000000
     23006      4874  TIP3      H2             20.9547382723       21.7158456317      -64.6867718335  TIP3      4810            0.0000000000
     23007      4875  TIP3      OH2            18.6195753595       17.4421968983      -60.1301708004  TIP3      4811            0.0000000000
     23008      4875  TIP3      H1             18.3901755484       18.0495459930      -60.8694193240  TIP3      4811            0.0000000000
     23009      4875  TIP3      H2             17.9629985509       17.7158486442      -59.4447743563  TIP3      4811            0.0000000000
     23010      4876  TIP3      OH2            18.2213648933       19.3554853830      -62.0798799781  TIP3      4812            0.0000000000
     23011      4876  TIP3      H1             18.8913205401       19.9994874652      -61.7714182549  TIP3      4812            0.0000000000
     23012      4876  TIP3      H2             18.7034364363       18.9606158905      -62.8574202941  TIP3      4812            0.0000000000
     23013      4877  TIP3      OH2            22.5539426515       14.8076487660      -62.7482717213  TIP3      4813            0.0000000000
     23014      4877  TIP3      H1             22.4662557035       13.8501540515      -62.7024516714  TIP3      4813            0.0000000000
     23015      4877  TIP3      H2             21.7192969239       15.1353361618      -62.3696962539  TIP3      4813            0.0000000000
     23016      4878  TIP3      OH2            20.5402674587      -23.8407371176      -61.4531462547  TIP3      4814            0.0000000000
     23017      4878  TIP3      H1             20.6969215215      -23.6847471299      -62.4092790953  TIP3      4814            0.0000000000
     23018      4878  TIP3      H2             20.4672754586      -22.9083135479      -61.2008516613  TIP3      4814            0.0000000000
     23019      4879  TIP3      OH2            20.0169892987       15.7646751155      -61.9593273179  TIP3      4815            0.0000000000
     23020      4879  TIP3      H1             19.1016300530       15.5965155780      -62.2789133193  TIP3      4815            0.0000000000
     23021      4879  TIP3      H2             19.8649538751       16.5646253315      -61.4253337669  TIP3      4815            0.0000000000
     23022      4880  TIP3      OH2            20.0972266905       20.5458198455      -60.5548814466  TIP3      4816            0.0000000000
     23023      4880  TIP3      H1             19.2892700598       20.6910375051      -60.0300558416  TIP3      4816            0.0000000000
     23024      4880  TIP3      H2             20.1693809677       21.4116065236      -61.0323037479  TIP3      4816            0.0000000000
     23025      4881  TIP3      OH2            20.0297405864       20.7596734844      -65.8678801476  TIP3      4817            0.0000000000
     23026      4881  TIP3      H1             19.0772405904       20.5606930562      -66.0052390805  TIP3      4817            0.0000000000
     23027      4881  TIP3      H2             20.4034380263       20.4926720982      -66.7269130527  TIP3      4817            0.0000000000
     23028      4882  TIP3      OH2            17.7182250969       21.0137691121      -58.9520156907  TIP3      4818            0.0000000000
     23029      4882  TIP3      H1             17.7503640016       21.3646103254      -58.0538689770  TIP3      4818            0.0000000000
     23030      4882  TIP3      H2             17.2940490893       20.1495894065      -58.8165356590  TIP3      4818            0.0000000000
     23031      4883  TIP3      OH2            21.0742684116       18.7470106865      -71.7869792444  TIP3      4819            0.0000000000
     23032      4883  TIP3      H1             20.7471150534       17.9268514158      -71.3783820751  TIP3      4819            0.0000000000
     23033      4883  TIP3      H2             20.6071215894       18.7324011289      -72.6273187272  TIP3      4819            0.0000000000
     23034      4884  TIP3      OH2            14.3950324401       18.0037415051      -64.9992709721  TIP3      4820            0.0000000000
     23035      4884  TIP3      H1             15.0805766427       18.0113491756      -64.2980312586  TIP3      4820            0.0000000000
     23036      4884  TIP3      H2             14.8616745270       17.6884025805      -65.7864226799  TIP3      4820            0.0000000000
     23037      4885  TIP3      OH2            15.5192920103       18.6885667198      -69.7827088976  TIP3      4821            0.0000000000
     23038      4885  TIP3      H1             16.1858470863       19.3053989375      -70.1591687432  TIP3      4821            0.0000000000
     23039      4885  TIP3      H2             14.9585596808       19.3752390038      -69.3477430477  TIP3      4821            0.0000000000
     23040      4886  TIP3      OH2            22.0951040083       18.5642757927      -64.6637697267  TIP3      4822            0.0000000000
     23041      4886  TIP3      H1             21.2937513422       18.2434424139      -64.2208690586  TIP3      4822            0.0000000000
     23042      4886  TIP3      H2             22.7768152545       18.4232971075      -63.9906167217  TIP3      4822            0.0000000000
     23043      4887  TIP3      OH2            17.4244261274       19.8717975675      -65.8829098578  TIP3      4823            0.0000000000
     23044      4887  TIP3      H1             16.5707685000       20.0947056200      -66.2923391275  TIP3      4823            0.0000000000
     23045      4887  TIP3      H2             17.6927487539       19.0614969674      -66.3527416740  TIP3      4823            0.0000000000
     23046      4888  TIP3      OH2            21.1028758189       19.9948448847      -68.3412189330  TIP3      4824            0.0000000000
     23047      4888  TIP3      H1             22.0171567970       20.1983241889      -68.1700279580  TIP3      4824            0.0000000000
     23048      4888  TIP3      H2             20.8507827008       20.6052475661      -69.0644813237  TIP3      4824            0.0000000000
     23049      4889  TIP3      OH2            19.7720398313       21.2229832317      -70.7015314388  TIP3      4825            0.0000000000
     23050      4889  TIP3      H1             19.2485795205       20.7720159492      -71.3750428472  TIP3      4825            0.0000000000
     23051      4889  TIP3      H2             20.6077466785       21.4330822293      -71.1681962426  TIP3      4825            0.0000000000
     23052      4890  TIP3      OH2            18.9202812716       17.2657665615      -66.4342890741  TIP3      4826            0.0000000000
     23053      4890  TIP3      H1             18.5821396173       16.3513070898      -66.4456354285  TIP3      4826            0.0000000000
     23054      4890  TIP3      H2             19.6794877195       17.2015622002      -67.0243151074  TIP3      4826            0.0000000000
     23055      4891  TIP3      OH2            22.4228863294       19.2348158828      -60.2467784562  TIP3      4827            0.0000000000
     23056      4891  TIP3      H1             21.7736493382       19.9097962286      -60.5447273677  TIP3      4827            0.0000000000
     23057      4891  TIP3      H2             23.0808955494       19.8037817057      -59.8471379288  TIP3      4827            0.0000000000
     23058      4892  TIP3      OH2            22.3004830063       22.0746697216      -55.1911486706  TIP3      4828            0.0000000000
     23059      4892  TIP3      H1             21.8436596366       22.3811331628      -55.9899469444  TIP3      4828            0.0000000000
     23060      4892  TIP3      H2             23.1991832201       22.4472873714      -55.2071170514  TIP3      4828            0.0000000000
     23061      4893  TIP3      OH2            16.4566860684      -23.4843117540      -71.5555785960  TIP3      4829            0.0000000000
     23062      4893  TIP3      H1             17.1070380516      -23.0656558309      -70.9646169227  TIP3      4829            0.0000000000
     23063      4893  TIP3      H2             15.6697260013      -23.3037440038      -71.0156190497  TIP3      4829            0.0000000000
     23064      4894  TIP3      OH2            16.8738904476       18.2198751164      -58.1960375606  TIP3      4830            0.0000000000
     23065      4894  TIP3      H1             15.9600066631       18.5432321306      -58.2059388364  TIP3      4830            0.0000000000
     23066      4894  TIP3      H2             16.7726534062       17.3931474948      -57.7050691148  TIP3      4830            0.0000000000
     23067      4895  TIP3      OH2            19.8702776732       17.4610186616      -69.6425348706  TIP3      4831            0.0000000000
     23068      4895  TIP3      H1             19.9536604572       18.3801055576      -69.3459889904  TIP3      4831            0.0000000000
     23069      4895  TIP3      H2             20.8143843537       17.2106418594      -69.5171876368  TIP3      4831            0.0000000000
     23070      4896  TIP3      OH2            16.6539277842       20.5861364265      -71.3360159552  TIP3      4832            0.0000000000
     23071      4896  TIP3      H1             16.6599023582       21.5690518194      -71.3501570532  TIP3      4832            0.0000000000
     23072      4896  TIP3      H2             15.8512221687       20.4053167906      -71.8453132022  TIP3      4832            0.0000000000
     23073      4897  TIP3      OH2            17.4506083416       15.3446648591      -62.7422784684  TIP3      4833            0.0000000000
     23074      4897  TIP3      H1             17.3343890565       15.3741117238      -63.7205531951  TIP3      4833            0.0000000000
     23075      4897  TIP3      H2             17.0637239220       14.4678220151      -62.5358916567  TIP3      4833            0.0000000000
     23076      4898  TIP3      OH2            16.3717093665       22.7087341858      -55.0610421598  TIP3      4834            0.0000000000
     23077      4898  TIP3      H1             16.8713397594       21.8898025388      -55.0139530232  TIP3      4834            0.0000000000
     23078      4898  TIP3      H2             16.1948235039       22.9267716672      -54.1161534708  TIP3      4834            0.0000000000
     23079      4899  TIP3      OH2            20.2691371993       21.9091895854      -57.5433511662  TIP3      4835            0.0000000000
     23080      4899  TIP3      H1             19.7798987193       22.7047732505      -57.3027079117  TIP3      4835            0.0000000000
     23081      4899  TIP3      H2             20.7168973423       22.1618331105      -58.3674722488  TIP3      4835            0.0000000000
     23082      4900  TIP3      OH2            22.1959975790       22.0928894462      -71.5180981782  TIP3      4836            0.0000000000
     23083      4900  TIP3      H1             21.9481070139       22.1221517670      -72.4630557019  TIP3      4836            0.0000000000
     23084      4900  TIP3      H2             23.1019679320       22.3784246025      -71.6489288626  TIP3      4836            0.0000000000
     23085      4901  TIP3      OH2            20.7957668749       19.1304021148      -56.6600337500  TIP3      4837            0.0000000000
     23086      4901  TIP3      H1             20.9458435772       18.4493977952      -57.3418071091  TIP3      4837            0.0000000000
     23087      4901  TIP3      H2             20.7415798529       19.9618650953      -57.1694470809  TIP3      4837            0.0000000000
     23088      4902  TIP3      OH2            21.1266979425       17.4372966404      -59.0465338883  TIP3      4838            0.0000000000
     23089      4902  TIP3      H1             21.6447299766       18.0425820704      -59.6306891886  TIP3      4838            0.0000000000
     23090      4902  TIP3      H2             20.2409621173       17.5921946185      -59.4264133728  TIP3      4838            0.0000000000
     23091      4903  TIP3      OH2            22.9464799815      -24.1932163662      -58.9572666381  TIP3      4839            0.0000000000
     23092      4903  TIP3      H1             23.7795550796      -24.0793836740      -59.4379483022  TIP3      4839            0.0000000000
     23093      4903  TIP3      H2             22.6411482938      -23.2995059159      -59.1400344467  TIP3      4839            0.0000000000
     23094      4904  TIP3      OH2            19.1848051068       20.5351469540      -54.6975205829  TIP3      4840            0.0000000000
     23095      4904  TIP3      H1             18.4829648729       19.8714690649      -54.8552275989  TIP3      4840            0.0000000000
     23096      4904  TIP3      H2             19.9113379656       20.1987713061      -55.2577448323  TIP3      4840            0.0000000000
     23097      4905  TIP3      OH2            21.6598082554       14.9811798024      -58.4644293743  TIP3      4841            0.0000000000
     23098      4905  TIP3      H1             21.6055228514       15.9519697670      -58.6592368008  TIP3      4841            0.0000000000
     23099      4905  TIP3      H2             21.0456749837       14.6369496021      -59.1366273760  TIP3      4841            0.0000000000
     23100      4906  TIP3      OH2            22.7982023990       19.5842013275      -54.5042918563  TIP3      4842            0.0000000000
     23101      4906  TIP3      H1             22.7980821162       18.8499517337      -53.8989324382  TIP3      4842            0.0000000000
     23102      4906  TIP3      H2             22.2984620589       19.2770739837      -55.2904926559  TIP3      4842            0.0000000000
     23103      4907  TIP3      OH2            17.2846725105       18.4574517232      -54.8695669237  TIP3      4843            0.0000000000
     23104      4907  TIP3      H1             17.5367428572       17.7225856027      -55.4597135934  TIP3      4843            0.0000000000
     23105      4907  TIP3      H2             17.2277788302       18.0075043897      -54.0030180750  TIP3      4843            0.0000000000
     23106      4908  TIP3      OH2            22.2018457270       14.4618988391      -55.9450944846  TIP3      4844            0.0000000000
     23107      4908  TIP3      H1             22.9369355708       13.8315768227      -55.9850333257  TIP3      4844            0.0000000000
     23108      4908  TIP3      H2             22.0287509300       14.6159265337      -56.9045054264  TIP3      4844            0.0000000000
     23109      4909  TIP3      OH2            22.5363380463       16.0388762821      -53.7967137299  TIP3      4845            0.0000000000
     23110      4909  TIP3      H1             22.3989219210       15.5496384902      -54.6456463470  TIP3      4845            0.0000000000
     23111      4909  TIP3      H2             21.9319258742       16.8134510984      -53.8574346226  TIP3      4845            0.0000000000
     23112      4910  TIP3      OH2            14.8841098828       19.4241152835      -55.6944274276  TIP3      4846            0.0000000000
     23113      4910  TIP3      H1             15.8149955805       19.2244354028      -55.4654983678  TIP3      4846            0.0000000000
     23114      4910  TIP3      H2             14.4161995861       18.6115699948      -55.4102850338  TIP3      4846            0.0000000000
     23115      4911  TIP3      OH2            16.0552712086       17.7518425271      -62.8256002447  TIP3      4847            0.0000000000
     23116      4911  TIP3      H1             16.5033709037       16.9164673871      -62.5914512990  TIP3      4847            0.0000000000
     23117      4911  TIP3      H2             16.6541150420       18.4250594808      -62.4712376563  TIP3      4847            0.0000000000
     23118      4912  TIP3      OH2            14.3315509665       20.7512526803      -61.8337830182  TIP3      4848            0.0000000000
     23119      4912  TIP3      H1             14.9037345699       20.5031373209      -62.5880443383  TIP3      4848            0.0000000000
     23120      4912  TIP3      H2             14.7862729367       21.5594618208      -61.5625383153  TIP3      4848            0.0000000000
     23121      4913  TIP3      OH2            14.6811310361       17.0320025879      -67.7435298006  TIP3      4849            0.0000000000
     23122      4913  TIP3      H1             13.7355645254       17.1972645608      -67.8567298053  TIP3      4849            0.0000000000
     23123      4913  TIP3      H2             15.0716735519       17.5437067288      -68.4695087338  TIP3      4849            0.0000000000
     23124      4914  TIP3      OH2            14.6415642617       15.6666398075      -59.4312091750  TIP3      4850            0.0000000000
     23125      4914  TIP3      H1             13.9753634773       15.4672854714      -58.7495267254  TIP3      4850            0.0000000000
     23126      4914  TIP3      H2             14.1814116948       16.3324392027      -59.9809854505  TIP3      4850            0.0000000000
     23127      4915  TIP3      OH2            17.2029179851       15.2043144596      -65.5085934132  TIP3      4851            0.0000000000
     23128      4915  TIP3      H1             16.4021636093       15.0616635042      -66.0454290182  TIP3      4851            0.0000000000
     23129      4915  TIP3      H2             17.6205935317       14.3258213675      -65.5944637679  TIP3      4851            0.0000000000
     23130      4916  TIP3      OH2            15.8828122173       14.9884809710      -69.9566983214  TIP3      4852            0.0000000000
     23131      4916  TIP3      H1             16.4643292770       15.6594838352      -70.3707826678  TIP3      4852            0.0000000000
     23132      4916  TIP3      H2             15.4102239632       15.5137667360      -69.2827700930  TIP3      4852            0.0000000000
     23133      4917  TIP3      OH2            21.4919505805       15.3140804982      -65.6617283261  TIP3      4853            0.0000000000
     23134      4917  TIP3      H1             22.4351745331       15.4546103812      -65.8465620717  TIP3      4853            0.0000000000
     23135      4917  TIP3      H2             21.5451090521       14.9734863930      -64.7653001044  TIP3      4853            0.0000000000
     23136      4918  TIP3      OH2            17.7460252446       16.7122383596      -71.2717747311  TIP3      4854            0.0000000000
     23137      4918  TIP3      H1             18.3873326546       16.3127932072      -71.8654016838  TIP3      4854            0.0000000000
     23138      4918  TIP3      H2             18.3568752801       17.1887286725      -70.6603805874  TIP3      4854            0.0000000000
     23139      4919  TIP3      OH2            22.3658643683       17.3076062165      -69.2705894054  TIP3      4855            0.0000000000
     23140      4919  TIP3      H1             22.7898260393       16.5814349784      -68.7917087834  TIP3      4855            0.0000000000
     23141      4919  TIP3      H2             22.7149614874       18.0832329581      -68.8219652145  TIP3      4855            0.0000000000
     23142      4920  TIP3      OH2            17.0521874479       15.7835454112      -56.1079832072  TIP3      4856            0.0000000000
     23143      4920  TIP3      H1             16.6622350994       14.9718230010      -55.7413525277  TIP3      4856            0.0000000000
     23144      4920  TIP3      H2             17.9514652551       15.7096864752      -55.7017908467  TIP3      4856            0.0000000000
     23145      4921  TIP3      OH2            19.0096179185       15.1030345528      -54.4872821592  TIP3      4857            0.0000000000
     23146      4921  TIP3      H1             19.9142130343       14.8057373493      -54.6844727078  TIP3      4857            0.0000000000
     23147      4921  TIP3      H2             18.6884302596       14.3125166647      -54.0120767593  TIP3      4857            0.0000000000
     23148      4922  TIP3      OH2           -11.4240585593      -13.3290962019      -46.8792180146  TIP3      4858            0.0000000000
     23149      4922  TIP3      H1            -11.4904531895      -12.3508860292      -46.8404182079  TIP3      4858            0.0000000000
     23150      4922  TIP3      H2            -12.1845799013      -13.5622790864      -47.4341586628  TIP3      4858            0.0000000000
     23151      4923  TIP3      OH2           -12.5834333697      -14.1058363199      -43.3506826576  TIP3      4859            0.0000000000
     23152      4923  TIP3      H1            -12.6016075177      -14.7285893218      -42.6082052133  TIP3      4859            0.0000000000
     23153      4923  TIP3      H2            -13.0029036840      -14.6214878442      -44.0607011035  TIP3      4859            0.0000000000
     23154      4924  TIP3      OH2           -20.2200740013      -14.4289134072      -41.8282582742  TIP3      4860            0.0000000000
     23155      4924  TIP3      H1            -20.1510854162      -15.1092818259      -41.1260626944  TIP3      4860            0.0000000000
     23156      4924  TIP3      H2            -19.4923200653      -13.8364441780      -41.5694980784  TIP3      4860            0.0000000000
     23157      4925  TIP3      OH2            -8.9449170598      -11.1362058681      -45.0334238836  TIP3      4861            0.0000000000
     23158      4925  TIP3      H1             -9.3277362332      -11.8596747066      -44.5326217059  TIP3      4861            0.0000000000
     23159      4925  TIP3      H2             -8.8850212502      -10.4402208970      -44.3544175633  TIP3      4861            0.0000000000
     23160      4926  TIP3      OH2           -19.3768738056       -9.9339750935      -43.3188517027  TIP3      4862            0.0000000000
     23161      4926  TIP3      H1            -19.6545983785      -10.8298578741      -43.6047939655  TIP3      4862            0.0000000000
     23162      4926  TIP3      H2            -18.4235779615      -10.1195589475      -43.2577063753  TIP3      4862            0.0000000000
     23163      4927  TIP3      OH2           -22.6145109992      -16.3784103735      -47.8885548390  TIP3      4863            0.0000000000
     23164      4927  TIP3      H1            -23.0397877181      -15.5117834422      -47.8090063507  TIP3      4863            0.0000000000
     23165      4927  TIP3      H2            -23.2887584821      -16.9589614017      -48.2161982749  TIP3      4863            0.0000000000
     23166      4928  TIP3      OH2           -21.9117518919      -14.1995038313      -45.5868157347  TIP3      4864            0.0000000000
     23167      4928  TIP3      H1            -21.6595186975      -15.0573622396      -45.1950077330  TIP3      4864            0.0000000000
     23168      4928  TIP3      H2            -21.2470844597      -14.0563812678      -46.2715668761  TIP3      4864            0.0000000000
     23169      4929  TIP3      OH2           -11.8654938252       -5.9852298307      -44.8164666577  TIP3      4865            0.0000000000
     23170      4929  TIP3      H1            -11.1719159332       -6.6271728632      -45.1066608934  TIP3      4865            0.0000000000
     23171      4929  TIP3      H2            -12.0483568423       -6.3505565835      -43.9497015117  TIP3      4865            0.0000000000
     23172      4930  TIP3      OH2           -14.2304948505      -11.7135060060      -42.8099523760  TIP3      4866            0.0000000000
     23173      4930  TIP3      H1            -13.9048119053      -12.3081822360      -43.4987532211  TIP3      4866            0.0000000000
     23174      4930  TIP3      H2            -13.3952593066      -11.5345803845      -42.3395657679  TIP3      4866            0.0000000000
     23175      4931  TIP3      OH2            -5.5904451880      -20.1103081449      -42.1333398251  TIP3      4867            0.0000000000
     23176      4931  TIP3      H1             -5.4479908305      -19.4818946773      -41.3858941250  TIP3      4867            0.0000000000
     23177      4931  TIP3      H2             -5.0739256672      -19.6548603995      -42.8145869755  TIP3      4867            0.0000000000
     23178      4932  TIP3      OH2           -11.0534455871      -17.2487807591      -42.5070457783  TIP3      4868            0.0000000000
     23179      4932  TIP3      H1            -10.8811689702      -18.2092347198      -42.5013570583  TIP3      4868            0.0000000000
     23180      4932  TIP3      H2            -11.1558581249      -17.1003709271      -43.4685941144  TIP3      4868            0.0000000000
     23181      4933  TIP3      OH2           -18.0077163560      -19.0626613222      -45.3278618810  TIP3      4869            0.0000000000
     23182      4933  TIP3      H1            -17.8290699992      -18.2693181017      -45.8708791544  TIP3      4869            0.0000000000
     23183      4933  TIP3      H2            -18.2974774706      -19.7069912221      -46.0120777065  TIP3      4869            0.0000000000
     23184      4934  TIP3      OH2           -10.1666830503      -19.1421576661      -46.9880048882  TIP3      4870            0.0000000000
     23185      4934  TIP3      H1             -9.5613187657      -19.4126398311      -46.2609237028  TIP3      4870            0.0000000000
     23186      4934  TIP3      H2             -9.6228185433      -18.4761039490      -47.4329653826  TIP3      4870            0.0000000000
     23187      4935  TIP3      OH2           -21.1897371046      -16.6910240492      -44.6616935869  TIP3      4871            0.0000000000
     23188      4935  TIP3      H1            -20.6103188221      -17.2965264477      -44.1773520642  TIP3      4871            0.0000000000
     23189      4935  TIP3      H2            -21.1640271980      -17.0727125201      -45.5524053702  TIP3      4871            0.0000000000
     23190      4936  TIP3      OH2           -16.1927091569      -15.1634039441      -45.2359998765  TIP3      4872            0.0000000000
     23191      4936  TIP3      H1            -15.4923102349      -15.7451106152      -44.8905396865  TIP3      4872            0.0000000000
     23192      4936  TIP3      H2            -16.6738846279      -15.7965101239      -45.8042243545  TIP3      4872            0.0000000000
     23193      4937  TIP3      OH2            -5.1962590498      -18.6209760297      -39.8774745036  TIP3      4873            0.0000000000
     23194      4937  TIP3      H1             -5.7894700691      -17.8457047354      -39.9794463255  TIP3      4873            0.0000000000
     23195      4937  TIP3      H2             -5.1737905114      -18.7159779936      -38.9170690457  TIP3      4873            0.0000000000
     23196      4938  TIP3      OH2           -19.0153147348      -20.2191299750      -41.3234558350  TIP3      4874            0.0000000000
     23197      4938  TIP3      H1            -19.3328376619      -19.6311552061      -42.0503017054  TIP3      4874            0.0000000000
     23198      4938  TIP3      H2            -19.7180779356      -20.0275532267      -40.6453144375  TIP3      4874            0.0000000000
     23199      4939  TIP3      OH2           -11.7707331495      -10.7637221085      -47.7490002654  TIP3      4875            0.0000000000
     23200      4939  TIP3      H1            -11.9939076159      -11.0100983017      -48.6562052069  TIP3      4875            0.0000000000
     23201      4939  TIP3      H2            -12.0592284401       -9.8263330240      -47.6944629825  TIP3      4875            0.0000000000
     23202      4940  TIP3      OH2           -16.5398456019      -12.6004592751      -41.0826986313  TIP3      4876            0.0000000000
     23203      4940  TIP3      H1            -17.2371284789      -11.9728514700      -40.7968711347  TIP3      4876            0.0000000000
     23204      4940  TIP3      H2            -15.8337868557      -11.9944158070      -41.3679726993  TIP3      4876            0.0000000000
     23205      4941  TIP3      OH2            -8.4199707322      -19.6269327092      -44.9148917376  TIP3      4877            0.0000000000
     23206      4941  TIP3      H1             -8.5948978753      -20.4612661253      -44.4525299345  TIP3      4877            0.0000000000
     23207      4941  TIP3      H2             -7.7051119088      -19.2755323208      -44.3645903447  TIP3      4877            0.0000000000
     23208      4942  TIP3      OH2           -19.4634391875      -18.3446942265      -43.2218920509  TIP3      4878            0.0000000000
     23209      4942  TIP3      H1            -18.8193100776      -17.6613216661      -42.9377687422  TIP3      4878            0.0000000000
     23210      4942  TIP3      H2            -18.9744550668      -18.7623388495      -43.9824932260  TIP3      4878            0.0000000000
     23211      4943  TIP3      OH2           -18.0407548955      -10.5626499526      -40.2613234846  TIP3      4879            0.0000000000
     23212      4943  TIP3      H1            -18.1095081979       -9.6438793725      -40.5753190204  TIP3      4879            0.0000000000
     23213      4943  TIP3      H2            -18.9214446273      -10.6717936791      -39.8303707408  TIP3      4879            0.0000000000
     23214      4944  TIP3      OH2           -21.5528162837      -10.6900949598      -49.5219441880  TIP3      4880            0.0000000000
     23215      4944  TIP3      H1            -22.2679660509      -10.7834679721      -50.1859127609  TIP3      4880            0.0000000000
     23216      4944  TIP3      H2            -21.9352095588      -10.0801298442      -48.8832520797  TIP3      4880            0.0000000000
     23217      4945  TIP3      OH2            -8.3987672249       -9.2937086580      -42.6819852392  TIP3      4881            0.0000000000
     23218      4945  TIP3      H1             -9.3670501896       -9.1697487621      -42.5645871120  TIP3      4881            0.0000000000
     23219      4945  TIP3      H2             -8.1260834812       -8.3836594904      -42.9078656445  TIP3      4881            0.0000000000
     23220      4946  TIP3      OH2            -7.9935065130      -21.0270293546      -41.1691605007  TIP3      4882            0.0000000000
     23221      4946  TIP3      H1             -8.7738866974      -20.4971731978      -41.4059880115  TIP3      4882            0.0000000000
     23222      4946  TIP3      H2             -7.3520439986      -20.6507186625      -41.7961396152  TIP3      4882            0.0000000000
     23223      4947  TIP3      OH2           -14.9166384885      -22.6442831372      -43.7352142902  TIP3      4883            0.0000000000
     23224      4947  TIP3      H1            -15.0552485922      -23.6071584218      -43.8219709417  TIP3      4883            0.0000000000
     23225      4947  TIP3      H2            -15.8213950685      -22.3399059643      -43.5860149823  TIP3      4883            0.0000000000
     23226      4948  TIP3      OH2           -10.1306442530       -7.4881203362      -46.1091787534  TIP3      4884            0.0000000000
     23227      4948  TIP3      H1             -9.7200362557       -8.2263525283      -46.6124352471  TIP3      4884            0.0000000000
     23228      4948  TIP3      H2             -9.6208870462       -6.7230039246      -46.4641985230  TIP3      4884            0.0000000000
     23229      4949  TIP3      OH2            -8.8995328292       -9.5880510049      -47.5698364026  TIP3      4885            0.0000000000
     23230      4949  TIP3      H1             -9.2130650995      -10.2723222198      -48.1828458675  TIP3      4885            0.0000000000
     23231      4949  TIP3      H2             -8.8753838881      -10.0890919774      -46.7352044494  TIP3      4885            0.0000000000
     23232      4950  TIP3      OH2            -7.3253178876      -10.9691992375      -39.0845408140  TIP3      4886            0.0000000000
     23233      4950  TIP3      H1             -7.1589444251      -11.6496271149      -39.7743945599  TIP3      4886            0.0000000000
     23234      4950  TIP3      H2             -7.0879849625      -10.1506756510      -39.5583007887  TIP3      4886            0.0000000000
     23235      4951  TIP3      OH2           -12.8090162116      -14.1327396433      -49.3486947617  TIP3      4887            0.0000000000
     23236      4951  TIP3      H1            -13.4876302462      -13.5217458088      -49.6898036185  TIP3      4887            0.0000000000
     23237      4951  TIP3      H2            -12.0787506817      -13.9933010911      -49.9774047338  TIP3      4887            0.0000000000
     23238      4952  TIP3      OH2           -12.6992619645      -15.5030594842      -52.3210799113  TIP3      4888            0.0000000000
     23239      4952  TIP3      H1            -11.9907471934      -15.4888910738      -51.6545843444  TIP3      4888            0.0000000000
     23240      4952  TIP3      H2            -12.4033993022      -16.2540709274      -52.8512085826  TIP3      4888            0.0000000000
     23241      4953  TIP3      OH2            -5.4092995814      -14.6636773402      -41.0685081035  TIP3      4889            0.0000000000
     23242      4953  TIP3      H1             -6.0471740548      -13.9235491907      -41.0341443902  TIP3      4889            0.0000000000
     23243      4953  TIP3      H2             -4.8802766981      -14.4201726977      -41.8525604717  TIP3      4889            0.0000000000
     23244      4954  TIP3      OH2            -9.3244837481      -13.9389408927      -48.4017965021  TIP3      4890            0.0000000000
     23245      4954  TIP3      H1            -10.0622757289      -13.6662244260      -47.8082929201  TIP3      4890            0.0000000000
     23246      4954  TIP3      H2             -8.8339208028      -14.5727555340      -47.8494119379  TIP3      4890            0.0000000000
     23247      4955  TIP3      OH2            -9.4109400674      -15.7388037961      -39.2472453791  TIP3      4891            0.0000000000
     23248      4955  TIP3      H1             -9.4129744223      -14.9121652988      -38.7373782863  TIP3      4891            0.0000000000
     23249      4955  TIP3      H2            -10.0269715982      -15.4578344834      -39.9546595217  TIP3      4891            0.0000000000
     23250      4956  TIP3      OH2           -17.7149908500      -13.2225369962      -46.4679005146  TIP3      4892            0.0000000000
     23251      4956  TIP3      H1            -18.0631330557      -13.6196722033      -47.3063816624  TIP3      4892            0.0000000000
     23252      4956  TIP3      H2            -17.1106328436      -13.9265495224      -46.1432323750  TIP3      4892            0.0000000000
     23253      4957  TIP3      OH2           -16.4349343899       -9.8424763888      -43.8222708875  TIP3      4893            0.0000000000
     23254      4957  TIP3      H1            -16.4185788217      -10.3791970870      -44.6269092592  TIP3      4893            0.0000000000
     23255      4957  TIP3      H2            -15.6479030687      -10.1850462164      -43.3563081948  TIP3      4893            0.0000000000
     23256      4958  TIP3      OH2           -17.4263035956      -14.4911342726      -42.7994367265  TIP3      4894            0.0000000000
     23257      4958  TIP3      H1            -16.8974225940      -14.4106385639      -43.6188598029  TIP3      4894            0.0000000000
     23258      4958  TIP3      H2            -17.0230615390      -13.8043140204      -42.2201629868  TIP3      4894            0.0000000000
     23259      4959  TIP3      OH2           -10.9689640904       -8.8932474406      -42.0994956697  TIP3      4895            0.0000000000
     23260      4959  TIP3      H1            -11.2704988022       -8.2525213414      -41.4460766268  TIP3      4895            0.0000000000
     23261      4959  TIP3      H2            -11.2188451616       -9.7509215793      -41.6871240964  TIP3      4895            0.0000000000
     23262      4960  TIP3      OH2           -16.4494157420      -10.0493470949      -38.1112677050  TIP3      4896            0.0000000000
     23263      4960  TIP3      H1            -16.9108637350       -9.3399251581      -37.6131560543  TIP3      4896            0.0000000000
     23264      4960  TIP3      H2            -17.1002199280      -10.2663141388      -38.8206860856  TIP3      4896            0.0000000000
     23265      4961  TIP3      OH2           -10.4464415990      -14.6622815080      -50.7519416616  TIP3      4897            0.0000000000
     23266      4961  TIP3      H1             -9.9042929641      -14.4986400795      -49.9418423326  TIP3      4897            0.0000000000
     23267      4961  TIP3      H2             -9.9709636813      -14.1786195461      -51.4695071188  TIP3      4897            0.0000000000
     23268      4962  TIP3      OH2           -19.5037381607      -13.8832779690      -38.9710035078  TIP3      4898            0.0000000000
     23269      4962  TIP3      H1            -19.4352993569      -13.1925826300      -38.2850039613  TIP3      4898            0.0000000000
     23270      4962  TIP3      H2            -20.4631493178      -13.8226199119      -39.1433508307  TIP3      4898            0.0000000000
     23271      4963  TIP3      OH2           -12.7885967325       -7.9671722663      -47.2312935940  TIP3      4899            0.0000000000
     23272      4963  TIP3      H1            -12.3036991178       -7.6527049353      -46.4559900441  TIP3      4899            0.0000000000
     23273      4963  TIP3      H2            -13.2805201276       -7.1959908158      -47.5275268200  TIP3      4899            0.0000000000
     23274      4964  TIP3      OH2           -18.1864172916       -8.0537066661      -37.3589621938  TIP3      4900            0.0000000000
     23275      4964  TIP3      H1            -18.2735538858       -8.1163140779      -38.3275579307  TIP3      4900            0.0000000000
     23276      4964  TIP3      H2            -19.1117540523       -8.1759781891      -37.0684370079  TIP3      4900            0.0000000000
     23277      4965  TIP3      OH2            -6.7056442472      -22.9635159521      -50.8357843598  TIP3      4901            0.0000000000
     23278      4965  TIP3      H1             -7.6135736948      -22.8085341682      -50.5333302811  TIP3      4901            0.0000000000
     23279      4965  TIP3      H2             -6.4779876481      -22.1027216266      -51.2279371781  TIP3      4901            0.0000000000
     23280      4966  TIP3      OH2           -18.7292437017      -14.2226754249      -48.8311377243  TIP3      4902            0.0000000000
     23281      4966  TIP3      H1            -19.0420817334      -13.4471477026      -49.3441599662  TIP3      4902            0.0000000000
     23282      4966  TIP3      H2            -19.3633837310      -14.9031547523      -49.0722200104  TIP3      4902            0.0000000000
     23283      4967  TIP3      OH2            -5.6236719727       -8.6056900458      -52.4740821848  TIP3      4903            0.0000000000
     23284      4967  TIP3      H1             -5.4295125467       -7.6681112595      -52.3006105668  TIP3      4903            0.0000000000
     23285      4967  TIP3      H2             -4.7130503080       -8.9536816047      -52.4420831843  TIP3      4903            0.0000000000
     23286      4968  TIP3      OH2           -22.6011662225      -11.7250646150      -39.9770548297  TIP3      4904            0.0000000000
     23287      4968  TIP3      H1            -22.9721038132      -11.8547164012      -40.8551554895  TIP3      4904            0.0000000000
     23288      4968  TIP3      H2            -22.5388094756      -12.6508016653      -39.6991020736  TIP3      4904            0.0000000000
     23289      4969  TIP3      OH2           -22.8640267742       -9.0013895285      -43.3031873142  TIP3      4905            0.0000000000
     23290      4969  TIP3      H1            -21.9128729168       -9.1796599604      -43.2236465691  TIP3      4905            0.0000000000
     23291      4969  TIP3      H2            -23.0112649713       -8.3127716873      -42.6403950726  TIP3      4905            0.0000000000
     23292      4970  TIP3      OH2            -4.6813056343       -8.3407656939      -37.4810878992  TIP3      4906            0.0000000000
     23293      4970  TIP3      H1             -4.8124120566       -9.2967478449      -37.5220800031  TIP3      4906            0.0000000000
     23294      4970  TIP3      H2             -5.5599589337       -8.0828067759      -37.1149240975  TIP3      4906            0.0000000000
     23295      4971  TIP3      OH2           -13.7287373247       -8.8140328007      -38.6306339077  TIP3      4907            0.0000000000
     23296      4971  TIP3      H1            -13.6810083849       -7.9689734740      -38.1212628019  TIP3      4907            0.0000000000
     23297      4971  TIP3      H2            -14.5987387055       -9.1829477645      -38.3844577977  TIP3      4907            0.0000000000
     23298      4972  TIP3      OH2           -13.3483868388       -5.0817720333      -48.8557684494  TIP3      4908            0.0000000000
     23299      4972  TIP3      H1            -13.3568166239       -5.1393246827      -49.8279125917  TIP3      4908            0.0000000000
     23300      4972  TIP3      H2            -13.2374692524       -4.1247643463      -48.7041614796  TIP3      4908            0.0000000000
     23301      4973  TIP3      OH2           -19.5880582146       -6.1984726626      -47.0148899454  TIP3      4909            0.0000000000
     23302      4973  TIP3      H1            -19.5755820441       -6.6779350407      -46.1552266412  TIP3      4909            0.0000000000
     23303      4973  TIP3      H2            -20.4329097549       -6.5943356204      -47.3294644777  TIP3      4909            0.0000000000
     23304      4974  TIP3      OH2           -10.2098025458       -5.8401406157      -51.8820591977  TIP3      4910            0.0000000000
     23305      4974  TIP3      H1             -9.7334250355       -6.5907360549      -52.3035403000  TIP3      4910            0.0000000000
     23306      4974  TIP3      H2            -10.1743337054       -6.0925750202      -50.9325508513  TIP3      4910            0.0000000000
     23307      4975  TIP3      OH2           -10.5134433325       -5.9385964446      -49.1089455831  TIP3      4911            0.0000000000
     23308      4975  TIP3      H1            -11.4587964183       -5.8043439583      -48.9104532054  TIP3      4911            0.0000000000
     23309      4975  TIP3      H2            -10.3006519024       -6.6746532046      -48.5163743778  TIP3      4911            0.0000000000
     23310      4976  TIP3      OH2            -7.5349494062      -16.8875207121      -37.0546876323  TIP3      4912            0.0000000000
     23311      4976  TIP3      H1             -8.0408131839      -16.4482325525      -37.7620142168  TIP3      4912            0.0000000000
     23312      4976  TIP3      H2             -7.5601444638      -17.8166514382      -37.3196564939  TIP3      4912            0.0000000000
     23313      4977  TIP3      OH2           -20.3778081033      -10.4348676558      -38.9910735093  TIP3      4913            0.0000000000
     23314      4977  TIP3      H1            -20.2287000419      -10.7777634831      -38.0880654911  TIP3      4913            0.0000000000
     23315      4977  TIP3      H2            -21.2589974927      -10.8244839800      -39.2072366749  TIP3      4913            0.0000000000
     23316      4978  TIP3      OH2           -17.6728666800      -21.4435484293      -43.2071332807  TIP3      4914            0.0000000000
     23317      4978  TIP3      H1            -18.5369221905      -21.8314596995      -43.5161270987  TIP3      4914            0.0000000000
     23318      4978  TIP3      H2            -18.0126708672      -20.9495635866      -42.4387358764  TIP3      4914            0.0000000000
     23319      4979  TIP3      OH2           -13.0487192230      -22.0583381197      -39.4873879958  TIP3      4915            0.0000000000
     23320      4979  TIP3      H1            -12.5889503744      -22.7254059651      -38.9713927749  TIP3      4915            0.0000000000
     23321      4979  TIP3      H2            -13.9308627166      -22.4269543942      -39.5173977596  TIP3      4915            0.0000000000
     23322      4980  TIP3      OH2            -9.8193909249      -18.5189292972      -38.8490619424  TIP3      4916            0.0000000000
     23323      4980  TIP3      H1            -10.3670762498      -18.6954055430      -38.0465861850  TIP3      4916            0.0000000000
     23324      4980  TIP3      H2             -9.9488756293      -17.5731461465      -39.0390435360  TIP3      4916            0.0000000000
     23325      4981  TIP3      OH2            -9.0077067191      -13.6269288331      -52.8304801751  TIP3      4917            0.0000000000
     23326      4981  TIP3      H1             -9.0789401840      -13.8182013304      -53.7937197954  TIP3      4917            0.0000000000
     23327      4981  TIP3      H2             -8.1472957387      -13.1840948440      -52.8455558857  TIP3      4917            0.0000000000
     23328      4982  TIP3      OH2           -13.4032031715      -19.7343066245      -52.3746534447  TIP3      4918            0.0000000000
     23329      4982  TIP3      H1            -13.7538082284      -19.8159818259      -51.4740303494  TIP3      4918            0.0000000000
     23330      4982  TIP3      H2            -13.7453394600      -20.5795398177      -52.7284087452  TIP3      4918            0.0000000000
     23331      4983  TIP3      OH2           -17.6021580988      -17.0047327323      -41.8087769264  TIP3      4919            0.0000000000
     23332      4983  TIP3      H1            -18.3036204128      -17.0129636899      -41.1369399277  TIP3      4919            0.0000000000
     23333      4983  TIP3      H2            -17.6605979681      -16.0958741349      -42.1863896977  TIP3      4919            0.0000000000
     23334      4984  TIP3      OH2           -17.6208535389      -16.8858694913      -46.9736358574  TIP3      4920            0.0000000000
     23335      4984  TIP3      H1            -18.5760941559      -17.1277842469      -47.0607464928  TIP3      4920            0.0000000000
     23336      4984  TIP3      H2            -17.2996977225      -17.2121041019      -47.8355393895  TIP3      4920            0.0000000000
     23337      4985  TIP3      OH2           -12.1057753888      -16.3747040982      -48.1829082218  TIP3      4921            0.0000000000
     23338      4985  TIP3      H1            -12.5000814245      -15.5553550392      -48.5631834490  TIP3      4921            0.0000000000
     23339      4985  TIP3      H2            -11.4357908437      -16.5721274208      -48.8581784734  TIP3      4921            0.0000000000
     23340      4986  TIP3      OH2           -13.0884524071      -16.1834588793      -36.7587246908  TIP3      4922            0.0000000000
     23341      4986  TIP3      H1            -13.5830219918      -16.9990391017      -36.4813801832  TIP3      4922            0.0000000000
     23342      4986  TIP3      H2            -12.2434386155      -16.2765484708      -36.2830939449  TIP3      4922            0.0000000000
     23343      4987  TIP3      OH2           -11.0631931291      -16.8874381807      -45.3213578706  TIP3      4923            0.0000000000
     23344      4987  TIP3      H1            -11.3836427708      -16.3226385451      -46.0462435396  TIP3      4923            0.0000000000
     23345      4987  TIP3      H2            -11.0104099749      -17.7393170063      -45.7838622387  TIP3      4923            0.0000000000
     23346      4988  TIP3      OH2           -20.0509800783      -16.7496785961      -40.1452373662  TIP3      4924            0.0000000000
     23347      4988  TIP3      H1            -19.9202218807      -16.3836878488      -39.2567228448  TIP3      4924            0.0000000000
     23348      4988  TIP3      H2            -20.3894960027      -17.6374652062      -39.9455560039  TIP3      4924            0.0000000000
     23349      4989  TIP3      OH2           -16.6540930316      -19.3885328404      -53.2730535751  TIP3      4925            0.0000000000
     23350      4989  TIP3      H1            -17.1331193510      -19.8143256911      -52.5271948958  TIP3      4925            0.0000000000
     23351      4989  TIP3      H2            -17.3391508734      -18.9610702064      -53.8025614012  TIP3      4925            0.0000000000
     23352      4990  TIP3      OH2           -22.0940864437      -19.5064456951      -46.4188998969  TIP3      4926            0.0000000000
     23353      4990  TIP3      H1            -22.3789909891      -19.7107618353      -45.5154390608  TIP3      4926            0.0000000000
     23354      4990  TIP3      H2            -22.7195608478      -20.0544223914      -46.9336158211  TIP3      4926            0.0000000000
     23355      4991  TIP3      OH2           -22.0306311354      -18.8256440404      -50.6737018326  TIP3      4927            0.0000000000
     23356      4991  TIP3      H1            -21.5003034321      -18.3587687515      -51.3508595447  TIP3      4927            0.0000000000
     23357      4991  TIP3      H2            -22.7538467661      -18.2272478571      -50.5380566368  TIP3      4927            0.0000000000
     23358      4992  TIP3      OH2           -11.9233757460      -15.3307858018      -40.8292754872  TIP3      4928            0.0000000000
     23359      4992  TIP3      H1            -11.5118472149      -16.0309895292      -41.3853145783  TIP3      4928            0.0000000000
     23360      4992  TIP3      H2            -12.3913177289      -15.8523987680      -40.1517003374  TIP3      4928            0.0000000000
     23361      4993  TIP3      OH2           -15.0946107315      -19.2640131847      -45.9371554120  TIP3      4929            0.0000000000
     23362      4993  TIP3      H1            -16.0253414960      -19.3953554714      -45.6602592085  TIP3      4929            0.0000000000
     23363      4993  TIP3      H2            -14.6144830098      -19.5582508322      -45.1433980864  TIP3      4929            0.0000000000
     23364      4994  TIP3      OH2           -20.1476950175      -17.7184370335      -47.1949482461  TIP3      4930            0.0000000000
     23365      4994  TIP3      H1            -21.0999332488      -17.6647230952      -47.4191591227  TIP3      4930            0.0000000000
     23366      4994  TIP3      H2            -19.9763257899      -18.6485298681      -47.4440100668  TIP3      4930            0.0000000000
     23367      4995  TIP3      OH2           -16.6455530615      -17.7362149128      -49.4486973770  TIP3      4931            0.0000000000
     23368      4995  TIP3      H1            -15.6863373078      -17.6429150871      -49.3087477645  TIP3      4931            0.0000000000
     23369      4995  TIP3      H2            -16.8877371147      -17.0498580268      -50.0972802542  TIP3      4931            0.0000000000
     23370      4996  TIP3      OH2           -10.6611946295      -20.1953813390      -42.7360910454  TIP3      4932            0.0000000000
     23371      4996  TIP3      H1            -11.3426619715      -20.0863473112      -42.0430991204  TIP3      4932            0.0000000000
     23372      4996  TIP3      H2            -11.1705180227      -20.4472888866      -43.5180989495  TIP3      4932            0.0000000000
     23373      4997  TIP3      OH2           -17.9423946801      -16.5481310769      -51.8797307745  TIP3      4933            0.0000000000
     23374      4997  TIP3      H1            -18.4377313932      -16.9654691310      -52.5993935959  TIP3      4933            0.0000000000
     23375      4997  TIP3      H2            -17.1089999348      -16.3475680182      -52.3340295216  TIP3      4933            0.0000000000
     23376      4998  TIP3      OH2            -7.5066187079       -4.4690645911      -36.3805828985  TIP3      4934            0.0000000000
     23377      4998  TIP3      H1             -7.2365269084       -4.1000509364      -37.2413894170  TIP3      4934            0.0000000000
     23378      4998  TIP3      H2             -6.7785678707       -4.1517584416      -35.8252933228  TIP3      4934            0.0000000000
     23379      4999  TIP3      OH2           -19.7507801727      -12.0571299221      -36.8121158003  TIP3      4935            0.0000000000
     23380      4999  TIP3      H1            -19.0345377522      -11.7634705004      -36.2229842171  TIP3      4935            0.0000000000
     23381      4999  TIP3      H2            -20.5285392770      -11.9374468137      -36.2111687807  TIP3      4935            0.0000000000
     23382      5000  TIP3      OH2           -13.8147616130      -16.5878535600      -44.0494433435  TIP3      4936            0.0000000000
     23383      5000  TIP3      H1            -13.2282060005      -17.1296269567      -44.5874648719  TIP3      4936            0.0000000000
     23384      5000  TIP3      H2            -13.9933446273      -17.1660686899      -43.2942398740  TIP3      4936            0.0000000000
     23385      5001  TIP3      OH2           -18.8770255815      -20.4364599055      -47.6620242484  TIP3      4937            0.0000000000
     23386      5001  TIP3      H1            -19.1653704328      -21.3601557654      -47.5705368911  TIP3      4937            0.0000000000
     23387      5001  TIP3      H2            -18.0390508358      -20.5579659271      -48.1338073420  TIP3      4937            0.0000000000
     23388      5002  TIP3      OH2           -15.1314947271      -18.2516093425      -41.6976740143  TIP3      4938            0.0000000000
     23389      5002  TIP3      H1            -15.9677634621      -17.7448209410      -41.5932552543  TIP3      4938            0.0000000000
     23390      5002  TIP3      H2            -14.6014311590      -17.9174987240      -40.9504334864  TIP3      4938            0.0000000000
     23391      5003  TIP3      OH2           -14.5877348247      -12.0530866597      -49.9282216612  TIP3      4939            0.0000000000
     23392      5003  TIP3      H1            -15.3922564263      -12.5037541855      -50.2767446679  TIP3      4939            0.0000000000
     23393      5003  TIP3      H2            -14.8459621099      -11.8773356824      -49.0001485841  TIP3      4939            0.0000000000
     23394      5004  TIP3      OH2            -7.3538623145      -12.8057551311      -41.1428963561  TIP3      4940            0.0000000000
     23395      5004  TIP3      H1             -6.8290905496      -12.3008530308      -41.7977677688  TIP3      4940            0.0000000000
     23396      5004  TIP3      H2             -8.2282028061      -12.8092624289      -41.5841605638  TIP3      4940            0.0000000000
     23397      5005  TIP3      OH2           -10.7705992019      -19.2308350768      -51.7656803170  TIP3      4941            0.0000000000
     23398      5005  TIP3      H1            -11.7241649505      -19.0752410660      -51.9102637612  TIP3      4941            0.0000000000
     23399      5005  TIP3      H2            -10.4196141136      -18.3903603828      -51.4074813767  TIP3      4941            0.0000000000
     23400      5006  TIP3      OH2           -13.0938835826      -11.7344051437      -38.6957866946  TIP3      4942            0.0000000000
     23401      5006  TIP3      H1            -13.4265681585      -12.1970742340      -37.9189625102  TIP3      4942            0.0000000000
     23402      5006  TIP3      H2            -13.3896929666      -10.8290100601      -38.5535939823  TIP3      4942            0.0000000000
     23403      5007  TIP3      OH2           -10.0287199869      -17.2803188666      -50.1787840541  TIP3      4943            0.0000000000
     23404      5007  TIP3      H1             -9.1638948177      -17.4249457626      -49.7300578302  TIP3      4943            0.0000000000
     23405      5007  TIP3      H2             -9.8960677249      -16.4553662316      -50.6730163012  TIP3      4943            0.0000000000
     23406      5008  TIP3      OH2           -19.4625957930      -12.6090154514      -44.1222269713  TIP3      4944            0.0000000000
     23407      5008  TIP3      H1            -18.8614474526      -12.7083761983      -44.8846812953  TIP3      4944            0.0000000000
     23408      5008  TIP3      H2            -19.3926993220      -13.4838433818      -43.7004263725  TIP3      4944            0.0000000000
     23409      5009  TIP3      OH2           -12.5102502781      -10.5767292833      -50.9031182926  TIP3      4945            0.0000000000
     23410      5009  TIP3      H1            -12.8567359518       -9.7254909138      -50.5588305949  TIP3      4945            0.0000000000
     23411      5009  TIP3      H2            -13.2339673473      -11.1986595277      -50.6737210992  TIP3      4945            0.0000000000
     23412      5010  TIP3      OH2           -22.2381539321      -14.2056754347      -38.8168551016  TIP3      4946            0.0000000000
     23413      5010  TIP3      H1            -22.0950749815      -14.6303504529      -37.9490886060  TIP3      4946            0.0000000000
     23414      5010  TIP3      H2            -23.0351933523      -14.6890673777      -39.1319019107  TIP3      4946            0.0000000000
     23415      5011  TIP3      OH2           -15.4712288587      -14.6735075787      -36.7290530409  TIP3      4947            0.0000000000
     23416      5011  TIP3      H1            -15.8114631603      -15.0324984207      -37.5649170404  TIP3      4947            0.0000000000
     23417      5011  TIP3      H2            -14.5610957709      -15.0265411826      -36.7325479013  TIP3      4947            0.0000000000
     23418      5012  TIP3      OH2           -10.7587028417       -9.3269180906      -38.7242831470  TIP3      4948            0.0000000000
     23419      5012  TIP3      H1            -11.6843449646       -9.1675970115      -38.9735248869  TIP3      4948            0.0000000000
     23420      5012  TIP3      H2            -10.8128946131       -9.0317589550      -37.7938673945  TIP3      4948            0.0000000000
     23421      5013  TIP3      OH2            -5.1409724970      -17.1650194939      -50.3658220280  TIP3      4949            0.0000000000
     23422      5013  TIP3      H1             -5.6821515847      -17.4450562921      -51.1302015888  TIP3      4949            0.0000000000
     23423      5013  TIP3      H2             -5.0604570018      -16.2096977210      -50.5896457516  TIP3      4949            0.0000000000
     23424      5014  TIP3      OH2            -5.1318573475      -11.3070447651      -37.5817241299  TIP3      4950            0.0000000000
     23425      5014  TIP3      H1             -6.0278049408      -11.0780842250      -37.9296371442  TIP3      4950            0.0000000000
     23426      5014  TIP3      H2             -4.5954170843      -11.3662210738      -38.4026032506  TIP3      4950            0.0000000000
     23427      5015  TIP3      OH2            -6.8914870713       -8.3488824767      -49.9945869268  TIP3      4951            0.0000000000
     23428      5015  TIP3      H1             -7.2046959691       -9.1866728606      -49.6333777147  TIP3      4951            0.0000000000
     23429      5015  TIP3      H2             -6.5000152366       -8.5858930254      -50.8513483846  TIP3      4951            0.0000000000
     23430      5016  TIP3      OH2            -9.6085415379      -13.5197132475      -42.8607691334  TIP3      4952            0.0000000000
     23431      5016  TIP3      H1            -10.5506337049      -13.7194484641      -42.9853409017  TIP3      4952            0.0000000000
     23432      5016  TIP3      H2             -9.1789887232      -14.2632538866      -43.3247609927  TIP3      4952            0.0000000000
     23433      5017  TIP3      OH2           -17.1485357506       -9.1580883216      -46.6391165567  TIP3      4953            0.0000000000
     23434      5017  TIP3      H1            -16.6132005051       -8.4314770734      -46.9980460692  TIP3      4953            0.0000000000
     23435      5017  TIP3      H2            -17.9838567103       -9.0406387320      -47.1104771092  TIP3      4953            0.0000000000
     23436      5018  TIP3      OH2           -21.5019196803      -14.3207805316      -52.1683655070  TIP3      4954            0.0000000000
     23437      5018  TIP3      H1            -20.7903134420      -13.7361917669      -51.8265803987  TIP3      4954            0.0000000000
     23438      5018  TIP3      H2            -22.2771911254      -13.8546203901      -51.8382907205  TIP3      4954            0.0000000000
     23439      5019  TIP3      OH2           -15.7167620858      -11.5046845079      -47.2862307051  TIP3      4955            0.0000000000
     23440      5019  TIP3      H1            -16.0359047422      -10.5999551067      -47.1407573879  TIP3      4955            0.0000000000
     23441      5019  TIP3      H2            -16.3965529184      -12.0263916562      -46.8130657080  TIP3      4955            0.0000000000
     23442      5020  TIP3      OH2           -15.2531020832       -7.3185600075      -40.7821932374  TIP3      4956            0.0000000000
     23443      5020  TIP3      H1            -14.7438176417       -6.5529252604      -41.0869736351  TIP3      4956            0.0000000000
     23444      5020  TIP3      H2            -14.6204270952       -7.7020343781      -40.1483395248  TIP3      4956            0.0000000000
     23445      5021  TIP3      OH2           -17.0080932826       -6.7270125781      -47.8145038304  TIP3      4957            0.0000000000
     23446      5021  TIP3      H1            -17.9767211054       -6.5617591536      -47.7017916388  TIP3      4957            0.0000000000
     23447      5021  TIP3      H2            -16.5305839157       -5.8996384205      -47.6483710914  TIP3      4957            0.0000000000
     23448      5022  TIP3      OH2           -11.7643326571      -11.3687641517      -41.2253492420  TIP3      4958            0.0000000000
     23449      5022  TIP3      H1            -12.0314428982      -11.5414070341      -40.2971066947  TIP3      4958            0.0000000000
     23450      5022  TIP3      H2            -11.1018156798      -12.0604176103      -41.3926991227  TIP3      4958            0.0000000000
     23451      5023  TIP3      OH2            -9.3404952117      -10.2281880106      -52.1237283680  TIP3      4959            0.0000000000
     23452      5023  TIP3      H1             -9.0575485809      -10.7265860368      -51.3311333806  TIP3      4959            0.0000000000
     23453      5023  TIP3      H2            -10.2909961191      -10.4346702136      -52.0715160329  TIP3      4959            0.0000000000
     23454      5024  TIP3      OH2            -8.8775088410       -6.7517051795      -38.7447246969  TIP3      4960            0.0000000000
     23455      5024  TIP3      H1             -9.5903621740       -7.2463199563      -39.1905553836  TIP3      4960            0.0000000000
     23456      5024  TIP3      H2             -8.7271311371       -6.0488327449      -39.4167128256  TIP3      4960            0.0000000000
     23457      5025  TIP3      OH2            -4.9112152164       -5.9082406675      -51.8641609838  TIP3      4961            0.0000000000
     23458      5025  TIP3      H1             -4.2348282395       -5.2392939152      -52.0873200275  TIP3      4961            0.0000000000
     23459      5025  TIP3      H2             -5.6276312621       -5.3054415876      -51.5711186929  TIP3      4961            0.0000000000
     23460      5026  TIP3      OH2           -20.8064644062      -19.5683747564      -39.4321600731  TIP3      4962            0.0000000000
     23461      5026  TIP3      H1            -21.6680499321      -19.1526361834      -39.2228408668  TIP3      4962            0.0000000000
     23462      5026  TIP3      H2            -20.8957221422      -20.3645756363      -38.8835236533  TIP3      4962            0.0000000000
     23463      5027  TIP3      OH2            -8.6031739724      -11.6197918727      -49.8705917209  TIP3      4963            0.0000000000
     23464      5027  TIP3      H1             -8.8410586993      -12.4248860854      -49.3611706656  TIP3      4963            0.0000000000
     23465      5027  TIP3      H2             -7.6431674573      -11.6029565412      -49.7251697406  TIP3      4963            0.0000000000
     23466      5028  TIP3      OH2           -21.2305463244       -7.7717616979      -40.8736877948  TIP3      4964            0.0000000000
     23467      5028  TIP3      H1            -20.8386975754       -8.6562507951      -40.9175176488  TIP3      4964            0.0000000000
     23468      5028  TIP3      H2            -20.8802508259       -7.4449647695      -40.0411474119  TIP3      4964            0.0000000000
     23469      5029  TIP3      OH2           -15.2199130880       -9.1768518255      -53.6020151414  TIP3      4965            0.0000000000
     23470      5029  TIP3      H1            -15.1604532140       -9.9308946984      -54.2133976620  TIP3      4965            0.0000000000
     23471      5029  TIP3      H2            -15.7211080444       -9.5966775044      -52.8678648365  TIP3      4965            0.0000000000
     23472      5030  TIP3      OH2           -16.5195253416       -9.6651677685      -51.1447749522  TIP3      4966            0.0000000000
     23473      5030  TIP3      H1            -16.1572974443      -10.1798754176      -50.4116681100  TIP3      4966            0.0000000000
     23474      5030  TIP3      H2            -16.4209821497       -8.7402200730      -50.8249707319  TIP3      4966            0.0000000000
     23475      5031  TIP3      OH2           -19.9193229938      -12.4281936931      -50.7131205673  TIP3      4967            0.0000000000
     23476      5031  TIP3      H1            -20.6452520106      -11.9890828465      -50.2095772427  TIP3      4967            0.0000000000
     23477      5031  TIP3      H2            -19.4036320676      -11.6436230818      -50.9802368673  TIP3      4967            0.0000000000
     23478      5032  TIP3      OH2           -12.0582672506      -19.7301274954      -40.3445244399  TIP3      4968            0.0000000000
     23479      5032  TIP3      H1            -11.3616632838      -19.6802844453      -39.6815398638  TIP3      4968            0.0000000000
     23480      5032  TIP3      H2            -12.4414841198      -20.6118825902      -40.1329130008  TIP3      4968            0.0000000000
     23481      5033  TIP3      OH2           -11.2107843314      -20.2547964126      -49.2674357658  TIP3      4969            0.0000000000
     23482      5033  TIP3      H1            -11.1465051217      -19.7194825723      -50.0869324673  TIP3      4969            0.0000000000
     23483      5033  TIP3      H2            -10.8141398909      -19.6515014824      -48.6123651821  TIP3      4969            0.0000000000
     23484      5034  TIP3      OH2           -13.6668640923       -8.0104832660      -50.4951119323  TIP3      4970            0.0000000000
     23485      5034  TIP3      H1            -14.4897691931       -7.4840347792      -50.4146513877  TIP3      4970            0.0000000000
     23486      5034  TIP3      H2            -13.1158216520       -7.4421663311      -51.0522066833  TIP3      4970            0.0000000000
     23487      5035  TIP3      OH2           -14.1099173843      -18.4447885800      -48.4520087398  TIP3      4971            0.0000000000
     23488      5035  TIP3      H1            -13.3610394374      -17.8225252126      -48.3908706415  TIP3      4971            0.0000000000
     23489      5035  TIP3      H2            -14.4114469604      -18.5592495125      -47.5266066123  TIP3      4971            0.0000000000
     23490      5036  TIP3      OH2           -13.5351860195      -17.3507305658      -39.2805307034  TIP3      4972            0.0000000000
     23491      5036  TIP3      H1            -13.4920621116      -16.8375574508      -38.4483611957  TIP3      4972            0.0000000000
     23492      5036  TIP3      H2            -12.9228777774      -18.0918569089      -39.1674580809  TIP3      4972            0.0000000000
     23493      5037  TIP3      OH2           -13.2976285583      -21.3349761195      -47.5281475087  TIP3      4973            0.0000000000
     23494      5037  TIP3      H1            -13.6373272853      -20.6630462589      -46.9169978208  TIP3      4973            0.0000000000
     23495      5037  TIP3      H2            -12.6293455646      -20.8238321133      -48.0301631903  TIP3      4973            0.0000000000
     23496      5038  TIP3      OH2           -16.2585593867       -6.9935104647      -50.4670689116  TIP3      4974            0.0000000000
     23497      5038  TIP3      H1            -16.1834187891       -6.1895546590      -51.0402527963  TIP3      4974            0.0000000000
     23498      5038  TIP3      H2            -16.5595837671       -6.6228391794      -49.6153186679  TIP3      4974            0.0000000000
     23499      5039  TIP3      OH2           -17.6601075105      -20.2177527103      -50.9034046169  TIP3      4975            0.0000000000
     23500      5039  TIP3      H1            -17.6817873715      -19.3545764454      -50.4530880350  TIP3      4975            0.0000000000
     23501      5039  TIP3      H2            -16.7667452394      -20.5149366137      -50.6269485008  TIP3      4975            0.0000000000
     23502      5040  TIP3      OH2            -7.4105855640      -19.5209268408      -38.4382481046  TIP3      4976            0.0000000000
     23503      5040  TIP3      H1             -8.3396128097      -19.2199801392      -38.5719198887  TIP3      4976            0.0000000000
     23504      5040  TIP3      H2             -7.1168133578      -19.5782842781      -39.3630203353  TIP3      4976            0.0000000000
     23505      5041  TIP3      OH2            -8.7785903551      -15.7295369816      -44.4458775491  TIP3      4977            0.0000000000
     23506      5041  TIP3      H1             -9.6007654033      -16.1916439759      -44.6904461548  TIP3      4977            0.0000000000
     23507      5041  TIP3      H2             -8.2771960401      -16.4021450250      -43.9287995476  TIP3      4977            0.0000000000
     23508      5042  TIP3      OH2           -19.3690236716       -9.7973006118      -51.8442662017  TIP3      4978            0.0000000000
     23509      5042  TIP3      H1            -18.6799638050       -9.2044662082      -51.5177123575  TIP3      4978            0.0000000000
     23510      5042  TIP3      H2            -18.8755433030      -10.3040520961      -52.5117625624  TIP3      4978            0.0000000000
     23511      5043  TIP3      OH2           -21.0981007875      -17.1073975022      -52.7134374235  TIP3      4979            0.0000000000
     23512      5043  TIP3      H1            -21.0956708991      -16.1691892062      -52.4576848005  TIP3      4979            0.0000000000
     23513      5043  TIP3      H2            -21.9757221266      -17.2916557508      -53.0510217743  TIP3      4979            0.0000000000
     23514      5044  TIP3      OH2            -7.6969984032       -6.5014146673      -42.7633956282  TIP3      4980            0.0000000000
     23515      5044  TIP3      H1             -7.8008201114       -5.8118841966      -43.4549497953  TIP3      4980            0.0000000000
     23516      5044  TIP3      H2             -6.7372555571       -6.4139916691      -42.5897201192  TIP3      4980            0.0000000000
     23517      5045  TIP3      OH2           -20.1552834394      -22.2628850845      -44.0422303795  TIP3      4981            0.0000000000
     23518      5045  TIP3      H1            -20.4265163036      -22.3156882532      -44.9868249058  TIP3      4981            0.0000000000
     23519      5045  TIP3      H2            -20.5674429081      -23.0831442876      -43.7020719958  TIP3      4981            0.0000000000
     23520      5046  TIP3      OH2           -21.2391931546       -8.3042904150      -47.6703633845  TIP3      4982            0.0000000000
     23521      5046  TIP3      H1            -22.1371078568       -7.9950507688      -47.8425793822  TIP3      4982            0.0000000000
     23522      5046  TIP3      H2            -20.8546519849       -8.0774108770      -48.5266554833  TIP3      4982            0.0000000000
     23523      5047  TIP3      OH2           -22.0282518295       -5.7957269433      -36.5737442804  TIP3      4983            0.0000000000
     23524      5047  TIP3      H1            -21.4763907469       -5.9093665889      -35.7722047792  TIP3      4983            0.0000000000
     23525      5047  TIP3      H2            -22.4644981014       -6.6535289095      -36.6144058064  TIP3      4983            0.0000000000
     23526      5048  TIP3      OH2           -17.3685631555       -6.8793617092      -34.9314065388  TIP3      4984            0.0000000000
     23527      5048  TIP3      H1            -16.6157457623       -7.3725787098      -34.5889863289  TIP3      4984            0.0000000000
     23528      5048  TIP3      H2            -17.4312905255       -7.1859638046      -35.8554736466  TIP3      4984            0.0000000000
     23529      5049  TIP3      OH2           -13.2212182775       -7.3311604923      -53.4880262319  TIP3      4985            0.0000000000
     23530      5049  TIP3      H1            -13.9340648942       -7.9900660823      -53.3163614736  TIP3      4985            0.0000000000
     23531      5049  TIP3      H2            -12.5188207814       -7.9406867605      -53.7583333208  TIP3      4985            0.0000000000
     23532      5050  TIP3      OH2           -10.9180764589       -8.4610488206      -36.1354094372  TIP3      4986            0.0000000000
     23533      5050  TIP3      H1            -11.2270135595       -9.3493848508      -35.8546078481  TIP3      4986            0.0000000000
     23534      5050  TIP3      H2            -10.1312725670       -8.3438634879      -35.5677502476  TIP3      4986            0.0000000000
     23535      5051  TIP3      OH2            -8.6832572801       -7.6155384030      -53.3243886388  TIP3      4987            0.0000000000
     23536      5051  TIP3      H1             -8.3980170306       -8.3843866897      -52.8033770210  TIP3      4987            0.0000000000
     23537      5051  TIP3      H2             -7.9153760015       -7.4219310583      -53.8798968908  TIP3      4987            0.0000000000
     23538      5052  TIP3      OH2           -22.0031560416      -11.9788020572      -35.5392028491  TIP3      4988            0.0000000000
     23539      5052  TIP3      H1            -21.9838136473      -12.9256536709      -35.7504755784  TIP3      4988            0.0000000000
     23540      5052  TIP3      H2            -22.8855794793      -11.7571269590      -35.9060325068  TIP3      4988            0.0000000000
     23541      5053  TIP3      OH2           -17.8097341946      -11.6612782209      -53.5414962570  TIP3      4989            0.0000000000
     23542      5053  TIP3      H1            -17.6727023764      -12.3989133664      -52.9287697806  TIP3      4989            0.0000000000
     23543      5053  TIP3      H2            -17.0350565507      -11.7764544072      -54.1265564650  TIP3      4989            0.0000000000
     23544      5054  TIP3      OH2           -15.4552681594      -12.0109242492      -36.1386937530  TIP3      4990            0.0000000000
     23545      5054  TIP3      H1            -15.7813833770      -11.6750071637      -36.9965397782  TIP3      4990            0.0000000000
     23546      5054  TIP3      H2            -15.4019880786      -12.9911519967      -36.2651761504  TIP3      4990            0.0000000000
     23547      5055  TIP3      OH2           -12.3641736298      -10.5322499875      -53.7256257757  TIP3      4991            0.0000000000
     23548      5055  TIP3      H1            -12.6364664911      -10.4826960100      -52.7951022126  TIP3      4991            0.0000000000
     23549      5055  TIP3      H2            -12.5391578860      -11.4887106213      -53.8951019197  TIP3      4991            0.0000000000
     23550      5056  TIP3      OH2            -9.7716181409      -12.1725351884      -38.7321681474  TIP3      4992            0.0000000000
     23551      5056  TIP3      H1             -8.9631379248      -11.6133252422      -38.7616981178  TIP3      4992            0.0000000000
     23552      5056  TIP3      H2            -10.4468696627      -11.4765317273      -38.7133119938  TIP3      4992            0.0000000000
     23553      5057  TIP3      OH2           -21.4374908622      -14.8830351095      -36.1231876438  TIP3      4993            0.0000000000
     23554      5057  TIP3      H1            -20.7498120642      -15.5655478999      -36.2166337197  TIP3      4993            0.0000000000
     23555      5057  TIP3      H2            -21.3789491783      -14.7237048316      -35.1658522176  TIP3      4993            0.0000000000
     23556      5058  TIP3      OH2           -16.5812361320      -13.6323464586      -51.0255243296  TIP3      4994            0.0000000000
     23557      5058  TIP3      H1            -17.1301872456      -14.1863102628      -50.4487779380  TIP3      4994            0.0000000000
     23558      5058  TIP3      H2            -16.2691642299      -14.2859261405      -51.6906116463  TIP3      4994            0.0000000000
     23559      5059  TIP3      OH2           -17.3203189658      -15.8506827668      -38.7975735954  TIP3      4995            0.0000000000
     23560      5059  TIP3      H1            -17.9481324920      -15.1522768428      -38.5374189371  TIP3      4995            0.0000000000
     23561      5059  TIP3      H2            -16.9210061040      -15.4593802883      -39.5933522308  TIP3      4995            0.0000000000
     23562      5060  TIP3      OH2           -15.5540926652      -15.3951805836      -52.8710638611  TIP3      4996            0.0000000000
     23563      5060  TIP3      H1            -15.6822965482      -15.4625323476      -53.8376744348  TIP3      4996            0.0000000000
     23564      5060  TIP3      H2            -14.5744352898      -15.3819054011      -52.7914917821  TIP3      4996            0.0000000000
     23565      5061  TIP3      OH2           -12.2488812824      -13.2479429524      -35.4264607173  TIP3      4997            0.0000000000
     23566      5061  TIP3      H1            -11.3027562154      -13.3045870599      -35.6086113635  TIP3      4997            0.0000000000
     23567      5061  TIP3      H2            -12.4275430589      -14.0317193639      -34.8797864309  TIP3      4997            0.0000000000
     23568      5062  TIP3      OH2            -6.2385322923      -13.1060663485      -53.4766104998  TIP3      4998            0.0000000000
     23569      5062  TIP3      H1             -6.3817403746      -13.4632525091      -54.3708866079  TIP3      4998            0.0000000000
     23570      5062  TIP3      H2             -6.1279500392      -12.1396118499      -53.6473276857  TIP3      4998            0.0000000000
     23571      5063  TIP3      OH2           -16.8862280121      -18.4661440809      -37.7465514750  TIP3      4999            0.0000000000
     23572      5063  TIP3      H1            -16.8078833838      -19.1472875178      -38.4384900601  TIP3      4999            0.0000000000
     23573      5063  TIP3      H2            -17.0033723333      -17.6584514201      -38.2851821406  TIP3      4999            0.0000000000
     23574      5064  TIP3      OH2           -16.5466505095      -19.8323253721      -40.1767958464  TIP3      5000            0.0000000000
     23575      5064  TIP3      H1            -16.0210784531      -19.5375049316      -40.9549530744  TIP3      5000            0.0000000000
     23576      5064  TIP3      H2            -17.4169604926      -20.0572666280      -40.5754637534  TIP3      5000            0.0000000000
     23577      5065  TIP3      OH2           -14.9915467473      -14.5428434842      -39.9288177907  TIP3      5001            0.0000000000
     23578      5065  TIP3      H1            -14.2372149052      -14.7287359391      -40.4984307390  TIP3      5001            0.0000000000
     23579      5065  TIP3      H2            -15.3720713737      -13.7288726447      -40.3014026043  TIP3      5001            0.0000000000
     23580      5066  TIP3      OH2           -10.5924227694      -16.8515416264      -34.9832879084  TIP3      5002            0.0000000000
     23581      5066  TIP3      H1            -10.3550392223      -17.7869664649      -35.0742484260  TIP3      5002            0.0000000000
     23582      5066  TIP3      H2             -9.7256334538      -16.4137776775      -34.9040357765  TIP3      5002            0.0000000000
     23583      5067  TIP3      OH2            -9.2286919702      -14.0225905273      -36.7629844100  TIP3      5003            0.0000000000
     23584      5067  TIP3      H1             -9.5017509976      -13.3266080979      -37.3999388554  TIP3      5003            0.0000000000
     23585      5067  TIP3      H2             -8.2765606997      -14.0593957689      -36.9656551095  TIP3      5003            0.0000000000
     23586      5068  TIP3      OH2           -18.4819551626      -17.1854022018      -35.8546071975  TIP3      5004            0.0000000000
     23587      5068  TIP3      H1            -19.2209034827      -17.8188271524      -35.9583074365  TIP3      5004            0.0000000000
     23588      5068  TIP3      H2            -17.8242671584      -17.6030635976      -36.4470992883  TIP3      5004            0.0000000000
     23589      5069  TIP3      OH2           -16.6189996366      -22.3333381385      -39.6984892769  TIP3      5005            0.0000000000
     23590      5069  TIP3      H1            -16.1264397048      -21.4911243785      -39.8829986246  TIP3      5005            0.0000000000
     23591      5069  TIP3      H2            -16.5165992806      -22.8791429081      -40.4773428827  TIP3      5005            0.0000000000
     23592      5070  TIP3      OH2           -14.4498562950      -18.3074753496      -36.1428341037  TIP3      5006            0.0000000000
     23593      5070  TIP3      H1            -14.7920531075      -18.5690310374      -35.2672222658  TIP3      5006            0.0000000000
     23594      5070  TIP3      H2            -15.2277764551      -18.4968546341      -36.6994369444  TIP3      5006            0.0000000000
     23595      5071  TIP3      OH2           -11.7659390141      -19.2020189214      -37.0363775495  TIP3      5007            0.0000000000
     23596      5071  TIP3      H1            -12.7264462872      -19.1094732805      -36.9184685172  TIP3      5007            0.0000000000
     23597      5071  TIP3      H2            -11.5066277646      -19.7971430762      -36.3067842689  TIP3      5007            0.0000000000
     23598      5072  TIP3      OH2           -10.1293519135      -20.4525802605      -35.1550801560  TIP3      5008            0.0000000000
     23599      5072  TIP3      H1            -10.2086788647      -21.4285638565      -35.1851387371  TIP3      5008            0.0000000000
     23600      5072  TIP3      H2            -10.4123123481      -20.2140069596      -34.2497333765  TIP3      5008            0.0000000000
     23601      5073  TIP3      OH2           -20.2360441777      -19.2699070149      -36.0029545064  TIP3      5009            0.0000000000
     23602      5073  TIP3      H1            -20.1133651456      -20.0173553530      -36.6172524486  TIP3      5009            0.0000000000
     23603      5073  TIP3      H2            -20.4452445250      -19.7334051656      -35.1694531212  TIP3      5009            0.0000000000
     23604      5074  TIP3      OH2           -15.2134626787       24.1937059016      -37.5540789719  TIP3      5010            0.0000000000
     23605      5074  TIP3      H1            -14.6943696896       23.4044863053      -37.3737378439  TIP3      5010            0.0000000000
     23606      5074  TIP3      H2            -15.7357700627       23.9506614592      -38.3459931846  TIP3      5010            0.0000000000
     23607      5075  TIP3      OH2           -15.1161487246      -21.5624802563      -34.9909782660  TIP3      5011            0.0000000000
     23608      5075  TIP3      H1            -15.3019659200      -22.0354815656      -35.8235332841  TIP3      5011            0.0000000000
     23609      5075  TIP3      H2            -15.7367139954      -20.8173606731      -35.0393490952  TIP3      5011            0.0000000000
     23610      5076  TIP3      OH2           -15.7251363083       -4.7290321901      -51.7903439335  TIP3      5012            0.0000000000
     23611      5076  TIP3      H1            -14.7562454582       -4.6600701343      -51.7068363018  TIP3      5012            0.0000000000
     23612      5076  TIP3      H2            -15.8419619530       -4.1435959560      -52.5480634576  TIP3      5012            0.0000000000
     23613      5077  TIP3      OH2           -22.0498942894      -10.0649939484      -52.3718151771  TIP3      5013            0.0000000000
     23614      5077  TIP3      H1            -21.1022418077      -10.0397823322      -52.1212926061  TIP3      5013            0.0000000000
     23615      5077  TIP3      H2            -22.0642159806      -10.7576129090      -53.0584252192  TIP3      5013            0.0000000000
     23616      5078  TIP3      OH2            23.6132331828       -4.9974822426      -47.5895355505  TIP3      5014            0.0000000000
     23617      5078  TIP3      H1             22.6967017798       -5.1792228227      -47.8139233007  TIP3      5014            0.0000000000
     23618      5078  TIP3      H2             23.6985242532       -5.4237970467      -46.7103413515  TIP3      5014            0.0000000000
     23619      5079  TIP3      OH2           -22.4857312894       -6.5997907968      -45.5097056951  TIP3      5015            0.0000000000
     23620      5079  TIP3      H1            -22.8273658706       -7.4805049256      -45.3000880593  TIP3      5015            0.0000000000
     23621      5079  TIP3      H2            -22.2989250098       -6.2298128339      -44.6253347070  TIP3      5015            0.0000000000
     23622      5080  TIP3      OH2            -4.9577185805       -5.8699906265      -42.5571448098  TIP3      5016            0.0000000000
     23623      5080  TIP3      H1             -4.9545456762       -5.6688728049      -41.6066562846  TIP3      5016            0.0000000000
     23624      5080  TIP3      H2             -4.3164805034       -5.2257103375      -42.8768449136  TIP3      5016            0.0000000000
     23625      5081  TIP3      OH2            -5.4348075390       -6.2312090241      -39.6134595204  TIP3      5017            0.0000000000
     23626      5081  TIP3      H1             -5.8975513089       -7.0009052274      -40.0084275747  TIP3      5017            0.0000000000
     23627      5081  TIP3      H2             -4.9794021232       -6.6815153043      -38.8822539876  TIP3      5017            0.0000000000
     23628      5082  TIP3      OH2            -6.9843401976      -10.5199623320      -34.9220441616  TIP3      5018            0.0000000000
     23629      5082  TIP3      H1             -7.8958378433      -10.5297533596      -34.5734483011  TIP3      5018            0.0000000000
     23630      5082  TIP3      H2             -6.6187284941       -9.7037751080      -34.5352909651  TIP3      5018            0.0000000000
     23631      5083  TIP3      OH2            -5.6632708849      -12.1674855587      -49.5304301670  TIP3      5019            0.0000000000
     23632      5083  TIP3      H1             -4.7898869643      -11.7859376033      -49.3344589791  TIP3      5019            0.0000000000
     23633      5083  TIP3      H2             -5.6961249468      -12.8713291289      -48.8502262350  TIP3      5019            0.0000000000
     23634      5084  TIP3      OH2            -5.3243582860      -14.0821249881      -47.6205413114  TIP3      5020            0.0000000000
     23635      5084  TIP3      H1             -6.0838902269      -14.5734369522      -47.2318679889  TIP3      5020            0.0000000000
     23636      5084  TIP3      H2             -4.7234713367      -13.9837389441      -46.8519707989  TIP3      5020            0.0000000000
     23637      5085  TIP3      OH2            -5.5576664652      -11.4215093976      -42.6286523669  TIP3      5021            0.0000000000
     23638      5085  TIP3      H1             -4.7626676737      -11.8124558241      -43.0273388859  TIP3      5021            0.0000000000
     23639      5085  TIP3      H2             -5.4021736104      -10.4686007014      -42.8002404793  TIP3      5021            0.0000000000
     23640      5086  TIP3      OH2            -6.9907039257       -8.5039843386      -40.3688706280  TIP3      5022            0.0000000000
     23641      5086  TIP3      H1             -7.6818757121       -8.1513847503      -39.7879066411  TIP3      5022            0.0000000000
     23642      5086  TIP3      H2             -7.5309016405       -8.8928368669      -41.0910991326  TIP3      5022            0.0000000000
     23643      5087  TIP3      OH2            -5.0103480026      -14.2830787112      -51.2301692043  TIP3      5023            0.0000000000
     23644      5087  TIP3      H1             -5.5934047001      -13.9732635968      -51.9526220285  TIP3      5023            0.0000000000
     23645      5087  TIP3      H2             -5.1358799432      -13.5647203170      -50.5807682012  TIP3      5023            0.0000000000
     23646      5088  TIP3      OH2            -6.6152793631      -17.0659671776      -52.7466287368  TIP3      5024            0.0000000000
     23647      5088  TIP3      H1             -6.5530718807      -16.4025403366      -53.4403455014  TIP3      5024            0.0000000000
     23648      5088  TIP3      H2             -6.8311369203      -17.8858807094      -53.2397396478  TIP3      5024            0.0000000000
     23649      5089  TIP3      OH2            -7.4806892540      -15.6319647572      -47.0249663628  TIP3      5025            0.0000000000
     23650      5089  TIP3      H1             -7.6274591908      -16.5841665100      -47.1007649415  TIP3      5025            0.0000000000
     23651      5089  TIP3      H2             -7.7884178618      -15.4538472471      -46.1142940642  TIP3      5025            0.0000000000
     23652      5090  TIP3      OH2           -22.5092409431      -13.5365865101      -42.9380800863  TIP3      5026            0.0000000000
     23653      5090  TIP3      H1            -22.3792305917      -13.6194421801      -43.9107251646  TIP3      5026            0.0000000000
     23654      5090  TIP3      H2            -21.5858646988      -13.6933566040      -42.6482060371  TIP3      5026            0.0000000000
     23655      5091  TIP3      OH2            -6.6054050546      -13.6775629017      -37.3351129462  TIP3      5027            0.0000000000
     23656      5091  TIP3      H1             -5.9954909293      -14.4356145852      -37.1969710771  TIP3      5027            0.0000000000
     23657      5091  TIP3      H2             -6.0025617244      -12.9027276793      -37.3478670397  TIP3      5027            0.0000000000
     23658      5092  TIP3      OH2            -5.1130301269      -15.8184994746      -36.7026339370  TIP3      5028            0.0000000000
     23659      5092  TIP3      H1             -6.0057624927      -16.2013103583      -36.8435098676  TIP3      5028            0.0000000000
     23660      5092  TIP3      H2             -4.5450874465      -16.6126480455      -36.7648858337  TIP3      5028            0.0000000000
     23661      5093  TIP3      OH2            -7.3447989211      -19.5508879590      -53.5790049421  TIP3      5029            0.0000000000
     23662      5093  TIP3      H1             -6.7690397103      -20.0198259292      -52.9512862286  TIP3      5029            0.0000000000
     23663      5093  TIP3      H2             -8.2134396940      -19.9699898989      -53.4456665520  TIP3      5029            0.0000000000
     23664      5094  TIP3      OH2            -7.8563762900      -18.0368445741      -48.6589646905  TIP3      5030            0.0000000000
     23665      5094  TIP3      H1             -7.5366490154      -18.9459529084      -48.4638697267  TIP3      5030            0.0000000000
     23666      5094  TIP3      H2             -7.0234759283      -17.6294936881      -48.9353770485  TIP3      5030            0.0000000000
     23667      5095  TIP3      OH2            -7.1841284486      -17.4868633108      -43.1483715314  TIP3      5031            0.0000000000
     23668      5095  TIP3      H1             -6.2156084428      -17.3018806672      -43.1579776513  TIP3      5031            0.0000000000
     23669      5095  TIP3      H2             -7.3583183645      -17.3851103479      -42.2005030151  TIP3      5031            0.0000000000
     23670      5096  TIP3      OH2            -7.1211695433      -16.7773996614      -40.3702753805  TIP3      5032            0.0000000000
     23671      5096  TIP3      H1             -8.0064503939      -16.4956618162      -40.0585335691  TIP3      5032            0.0000000000
     23672      5096  TIP3      H2             -6.6810826795      -15.9254311630      -40.5913078413  TIP3      5032            0.0000000000
     23673      5097  TIP3      OH2           -22.3812619475      -18.5282640765      -37.5120451749  TIP3      5033            0.0000000000
     23674      5097  TIP3      H1            -21.6832424295      -18.4318845799      -36.8344608886  TIP3      5033            0.0000000000
     23675      5097  TIP3      H2            -23.0501290182      -18.9049522746      -36.9240332418  TIP3      5033            0.0000000000
     23676      5098  TIP3      OH2            -4.7697017210      -22.6638268433      -34.9156700646  TIP3      5034            0.0000000000
     23677      5098  TIP3      H1             -4.6142626639      -23.3750434808      -35.5821089149  TIP3      5034            0.0000000000
     23678      5098  TIP3      H2             -4.7980101911      -21.9024605808      -35.5284384148  TIP3      5034            0.0000000000
     23679      5099  TIP3      OH2            -7.1321833963      -20.7776474857      -48.5699436896  TIP3      5035            0.0000000000
     23680      5099  TIP3      H1             -6.9147974923      -21.1897441678      -47.7020188198  TIP3      5035            0.0000000000
     23681      5099  TIP3      H2             -7.7593541245      -21.4284028382      -48.9465695074  TIP3      5035            0.0000000000
     23682      5100  TIP3      OH2           -21.7636571255      -19.9363586702      -43.7559501195  TIP3      5036            0.0000000000
     23683      5100  TIP3      H1            -21.2287410279      -20.7521510462      -43.6812107595  TIP3      5036            0.0000000000
     23684      5100  TIP3      H2            -21.1018065525      -19.2508788525      -43.5912543620  TIP3      5036            0.0000000000
     23685      5101  TIP3      OH2           -23.3951162743      -16.6827890352      -43.2030538117  TIP3      5037            0.0000000000
     23686      5101  TIP3      H1            -22.7469784284      -17.1984622431      -43.7112677856  TIP3      5037            0.0000000000
     23687      5101  TIP3      H2            -22.8099387516      -16.0655979968      -42.7568251138  TIP3      5037            0.0000000000
     23688      5102  TIP3      OH2            -5.3168919737      -20.7000255535      -36.7330013424  TIP3      5038            0.0000000000
     23689      5102  TIP3      H1             -6.2426613822      -20.3924263865      -36.7203649409  TIP3      5038            0.0000000000
     23690      5102  TIP3      H2             -5.3667529787      -21.2612302882      -37.5225189178  TIP3      5038            0.0000000000
     23691      5103  TIP3      OH2            -5.2859814387      -20.7416078603      -51.8854294506  TIP3      5039            0.0000000000
     23692      5103  TIP3      H1             -4.9742438608      -21.4045608146      -52.5504881572  TIP3      5039            0.0000000000
     23693      5103  TIP3      H2             -4.6301651614      -20.0315290531      -51.9645396568  TIP3      5039            0.0000000000
     23694      5104  TIP3      OH2           -22.7470551298      -20.8114073626      -48.4969962905  TIP3      5040            0.0000000000
     23695      5104  TIP3      H1            -23.6704273666      -20.5815074227      -48.5534626924  TIP3      5040            0.0000000000
     23696      5104  TIP3      H2            -22.3528094363      -20.3762908527      -49.2922924965  TIP3      5040            0.0000000000
     23697      5105  TIP3      OH2            -8.2824141971       -5.7358063969      -46.9085828223  TIP3      5041            0.0000000000
     23698      5105  TIP3      H1             -7.5798627268       -6.0159539476      -47.5253429559  TIP3      5041            0.0000000000
     23699      5105  TIP3      H2             -7.8008478169       -5.1973968971      -46.2478615991  TIP3      5041            0.0000000000
     23700      5106  TIP3      OH2            23.8186430698      -21.7553771338      -40.5766917079  TIP3      5042            0.0000000000
     23701      5106  TIP3      H1             23.2929653572      -21.9394937516      -39.7943528405  TIP3      5042            0.0000000000
     23702      5106  TIP3      H2             23.2865407984      -21.2282354808      -41.1886419495  TIP3      5042            0.0000000000
     23703      5107  TIP3      OH2           -20.8341200001       -8.8676692386      -36.3581587897  TIP3      5043            0.0000000000
     23704      5107  TIP3      H1            -21.6679387598       -8.7082912171      -36.8082461055  TIP3      5043            0.0000000000
     23705      5107  TIP3      H2            -21.0906437595       -8.9907728365      -35.4377507243  TIP3      5043            0.0000000000
     23706      5108  TIP3      OH2           -17.9532655520       -7.8229248330      -40.1517325380  TIP3      5044            0.0000000000
     23707      5108  TIP3      H1            -18.2493382935       -6.9275344320      -40.3726944479  TIP3      5044            0.0000000000
     23708      5108  TIP3      H2            -17.0164323391       -7.7545478175      -40.4365947649  TIP3      5044            0.0000000000
     23709      5109  TIP3      OH2           -13.6133124021       -6.4141895396      -37.2514632656  TIP3      5045            0.0000000000
     23710      5109  TIP3      H1            -13.4958113702       -6.7632614484      -36.3416536284  TIP3      5045            0.0000000000
     23711      5109  TIP3      H2            -12.7006434095       -6.1040505760      -37.4633146294  TIP3      5045            0.0000000000
     23712      5110  TIP3      OH2           -11.3324333096       -5.1721755973      -37.8823259224  TIP3      5046            0.0000000000
     23713      5110  TIP3      H1            -10.5684077433       -5.6851173612      -38.1697994972  TIP3      5046            0.0000000000
     23714      5110  TIP3      H2            -10.9581716400       -4.6945601694      -37.1113541430  TIP3      5046            0.0000000000
     23715      5111  TIP3      OH2            -6.3709473960      -22.5397984748      -38.7883527642  TIP3      5047            0.0000000000
     23716      5111  TIP3      H1             -7.1601794845      -22.1668260029      -39.2090254419  TIP3      5047            0.0000000000
     23717      5111  TIP3      H2             -6.1897959073      -23.3497236891      -39.2871290189  TIP3      5047            0.0000000000
     23718      5112  TIP3      OH2           -20.6036766695       -4.6800888322      -40.1674972559  TIP3      5048            0.0000000000
     23719      5112  TIP3      H1            -21.2711362221       -4.0707618462      -40.5612326237  TIP3      5048            0.0000000000
     23720      5112  TIP3      H2            -20.8642457222       -4.6871083391      -39.2374627417  TIP3      5048            0.0000000000
     23721      5113  TIP3      OH2           -18.0380845774       -5.0061776842      -41.1075886176  TIP3      5049            0.0000000000
     23722      5113  TIP3      H1            -18.9130566726       -4.8481279027      -40.6804477445  TIP3      5049            0.0000000000
     23723      5113  TIP3      H2            -18.0919853801       -4.3932956987      -41.8530622945  TIP3      5049            0.0000000000
     23724      5114  TIP3      OH2           -13.3771015012       -5.1267952921      -41.9332812261  TIP3      5050            0.0000000000
     23725      5114  TIP3      H1            -13.7482465733       -4.5094458079      -42.5664767307  TIP3      5050            0.0000000000
     23726      5114  TIP3      H2            -13.2046961392       -4.5175525589      -41.1790863722  TIP3      5050            0.0000000000
     23727      5115  TIP3      OH2           -11.0780928250       -6.3442261204      -40.8253456236  TIP3      5051            0.0000000000
     23728      5115  TIP3      H1            -11.8885703138       -6.0268447170      -41.2548521901  TIP3      5051            0.0000000000
     23729      5115  TIP3      H2            -10.5386776637       -5.5420839639      -40.9203032357  TIP3      5051            0.0000000000
     23730      5116  TIP3      OH2            -8.4748200355       -4.7505785997      -40.6806715723  TIP3      5052            0.0000000000
     23731      5116  TIP3      H1             -8.4713971796       -3.7877863570      -40.9085853159  TIP3      5052            0.0000000000
     23732      5116  TIP3      H2             -8.2440555147       -5.1418965563      -41.5467000415  TIP3      5052            0.0000000000
     23733      5117  TIP3      OH2           -21.0367401999       -5.9650394634      -43.2560714344  TIP3      5053            0.0000000000
     23734      5117  TIP3      H1            -21.1326234043       -6.3693546793      -42.3736488175  TIP3      5053            0.0000000000
     23735      5117  TIP3      H2            -20.2283374813       -6.3781660099      -43.5902133005  TIP3      5053            0.0000000000
     23736      5118  TIP3      OH2           -18.9339331043       -7.2337699480      -44.5773010252  TIP3      5054            0.0000000000
     23737      5118  TIP3      H1            -19.1461907422       -8.1650619426      -44.3346144289  TIP3      5054            0.0000000000
     23738      5118  TIP3      H2            -18.1306699070       -7.1258496500      -44.0335889052  TIP3      5054            0.0000000000
     23739      5119  TIP3      OH2           -16.3343505463       -6.7445564286      -43.6934917811  TIP3      5055            0.0000000000
     23740      5119  TIP3      H1            -16.1917551335       -7.6909855047      -43.9039018120  TIP3      5055            0.0000000000
     23741      5119  TIP3      H2            -16.2972542760       -6.7895075237      -42.7194375883  TIP3      5055            0.0000000000
     23742      5120  TIP3      OH2           -12.9820752815      -20.9950228265      -44.5128187716  TIP3      5056            0.0000000000
     23743      5120  TIP3      H1            -13.5705425707      -21.7174265241      -44.2114218805  TIP3      5056            0.0000000000
     23744      5120  TIP3      H2            -12.3467776454      -21.5225464673      -45.0202549251  TIP3      5056            0.0000000000
     23745      5121  TIP3      OH2            -7.6283894841      -22.4837548949      -44.2702317746  TIP3      5057            0.0000000000
     23746      5121  TIP3      H1             -7.0823701608      -22.3757201944      -45.0792000063  TIP3      5057            0.0000000000
     23747      5121  TIP3      H2             -8.5084389524      -22.7433433071      -44.6001425798  TIP3      5057            0.0000000000
     23748      5122  TIP3      OH2            -6.0794675015      -21.7730119826      -46.3070058537  TIP3      5058            0.0000000000
     23749      5122  TIP3      H1             -5.4288022548      -22.4065505721      -46.6250438069  TIP3      5058            0.0000000000
     23750      5122  TIP3      H2             -5.5443943204      -20.9629989847      -46.1285996308  TIP3      5058            0.0000000000
     23751      5123  TIP3      OH2           -20.4643787622      -22.5850599305      -46.6739652210  TIP3      5059            0.0000000000
     23752      5123  TIP3      H1            -21.2377509770      -22.6001880027      -47.2555298452  TIP3      5059            0.0000000000
     23753      5123  TIP3      H2            -20.0770219936      -23.4549264128      -46.7887893708  TIP3      5059            0.0000000000
     23754      5124  TIP3      OH2           -21.7160709606      -22.3377740504      -50.3933966153  TIP3      5060            0.0000000000
     23755      5124  TIP3      H1            -21.3907802928      -21.8991043305      -51.1907762017  TIP3      5060            0.0000000000
     23756      5124  TIP3      H2            -22.6018110937      -21.9899532892      -50.3660051822  TIP3      5060            0.0000000000
     23757      5125  TIP3      OH2           -16.0709121899      -22.3776072908      -46.9664874983  TIP3      5061            0.0000000000
     23758      5125  TIP3      H1            -15.1325132047      -22.1439298981      -46.9804684847  TIP3      5061            0.0000000000
     23759      5125  TIP3      H2            -16.1101676980      -22.9382987182      -46.1754305212  TIP3      5061            0.0000000000
     23760      5126  TIP3      OH2           -10.4843743939      -22.5104102825      -45.3365785347  TIP3      5062            0.0000000000
     23761      5126  TIP3      H1            -10.3320101640      -22.4287381522      -46.2784714417  TIP3      5062            0.0000000000
     23762      5126  TIP3      H2            -10.6253922164      -23.4554867848      -45.2033391975  TIP3      5062            0.0000000000
     23763      5127  TIP3      OH2            -9.0032805509      -22.3903431522      -49.5380673862  TIP3      5063            0.0000000000
     23764      5127  TIP3      H1             -9.7887529312      -21.8227482088      -49.6750022637  TIP3      5063            0.0000000000
     23765      5127  TIP3      H2             -9.3147238550      -23.1576382136      -49.0470248880  TIP3      5063            0.0000000000
     23766      5128  TIP3      OH2           -21.8273763589       -6.7305726842      -49.9151304418  TIP3      5064            0.0000000000
     23767      5128  TIP3      H1            -22.5130751948       -6.8083860344      -50.5937561555  TIP3      5064            0.0000000000
     23768      5128  TIP3      H2            -21.8225957549       -5.7653853305      -49.8314628957  TIP3      5064            0.0000000000
     23769      5129  TIP3      OH2           -19.9416770064      -20.8105103282      -52.4588253083  TIP3      5065            0.0000000000
     23770      5129  TIP3      H1            -19.3559695600      -21.3659130758      -52.9954820906  TIP3      5065            0.0000000000
     23771      5129  TIP3      H2            -19.2806574408      -20.4785464985      -51.8176808265  TIP3      5065            0.0000000000
     23772      5130  TIP3      OH2           -15.0350208588      -20.5446478560      -50.0095902559  TIP3      5066            0.0000000000
     23773      5130  TIP3      H1            -14.6363884591      -21.0852494406      -49.3009272097  TIP3      5066            0.0000000000
     23774      5130  TIP3      H2            -14.8648012788      -19.6639310663      -49.6211277819  TIP3      5066            0.0000000000
     23775      5131  TIP3      OH2           -12.9633805981       -5.4411949287      -51.6160924025  TIP3      5067            0.0000000000
     23776      5131  TIP3      H1            -12.0307516089       -5.2853575966      -51.8424759223  TIP3      5067            0.0000000000
     23777      5131  TIP3      H2            -13.1950197110       -6.0010892782      -52.3884913169  TIP3      5067            0.0000000000
     23778      5132  TIP3      OH2            -6.3297993131       -5.9889025082      -48.8546105661  TIP3      5068            0.0000000000
     23779      5132  TIP3      H1             -6.4974752038       -6.7756005530      -49.4241980772  TIP3      5068            0.0000000000
     23780      5132  TIP3      H2             -6.3756835976       -5.2574198536      -49.5077614516  TIP3      5068            0.0000000000
     23781      5133  TIP3      OH2           -20.5917147282      -21.8369983525      -37.3042753755  TIP3      5069            0.0000000000
     23782      5133  TIP3      H1            -21.0434397300      -22.6402751456      -36.9530634441  TIP3      5069            0.0000000000
     23783      5133  TIP3      H2            -19.7255661082      -21.9315564922      -36.8534657512  TIP3      5069            0.0000000000
     23784      5134  TIP3      OH2           -18.5997765011      -22.5797156203      -35.6030699189  TIP3      5070            0.0000000000
     23785      5134  TIP3      H1            -17.7030603703      -22.9191622439      -35.7451590139  TIP3      5070            0.0000000000
     23786      5134  TIP3      H2            -19.0426057008      -23.3552057671      -35.2331548905  TIP3      5070            0.0000000000
     23787      5135  TIP3      OH2           -20.0672134673       -5.8043936759      -52.9973144208  TIP3      5071            0.0000000000
     23788      5135  TIP3      H1            -20.3629106465       -5.5374469760      -52.1135812955  TIP3      5071            0.0000000000
     23789      5135  TIP3      H2            -19.3064319483       -6.3806561481      -52.8062291573  TIP3      5071            0.0000000000
     23790      5136  TIP3      OH2           -10.1553003535       23.5971090753      -35.4739653006  TIP3      5072            0.0000000000
     23791      5136  TIP3      H1            -10.2762620592       22.9522997355      -34.7639263512  TIP3      5072            0.0000000000
     23792      5136  TIP3      H2             -9.2620324525       23.4542895392      -35.8117791658  TIP3      5072            0.0000000000
     23793      5137  TIP3      OH2            -7.0434842504       -7.2088327487      -36.8286363606  TIP3      5073            0.0000000000
     23794      5137  TIP3      H1             -7.8393772343       -7.3335538213      -37.3894022534  TIP3      5073            0.0000000000
     23795      5137  TIP3      H2             -7.1645939353       -6.2645247848      -36.6057720678  TIP3      5073            0.0000000000
     23796      5138  TIP3      OH2             7.4329395309      -13.3289204999      -46.8789690958  TIP3      5074            0.0000000000
     23797      5138  TIP3      H1              7.3656077754      -12.3516430272      -46.8406415923  TIP3      5074            0.0000000000
     23798      5138  TIP3      H2              6.6713960936      -13.5627231149      -47.4359941022  TIP3      5074            0.0000000000
     23799      5139  TIP3      OH2             6.2740275725      -14.1058200086      -43.3530965372  TIP3      5075            0.0000000000
     23800      5139  TIP3      H1              6.2546675016      -14.7285967713      -42.6082371753  TIP3      5075            0.0000000000
     23801      5139  TIP3      H2              5.8553040106      -14.6213235582      -44.0603730517  TIP3      5075            0.0000000000
     23802      5140  TIP3      OH2            -1.3962779344      -14.3923270943      -41.7879031156  TIP3      5076            0.0000000000
     23803      5140  TIP3      H1             -1.3168413633      -15.0958723310      -41.1106214737  TIP3      5076            0.0000000000
     23804      5140  TIP3      H2             -0.6386003914      -13.8364111077      -41.5503626997  TIP3      5076            0.0000000000
     23805      5141  TIP3      OH2             9.9126094289      -11.1368478459      -45.0340458263  TIP3      5077            0.0000000000
     23806      5141  TIP3      H1              9.5273723954      -11.8591303048      -44.5333686770  TIP3      5077            0.0000000000
     23807      5141  TIP3      H2              9.9707356368      -10.4404551480      -44.3552001980  TIP3      5077            0.0000000000
     23808      5142  TIP3      OH2            -0.4771127318       -9.9398965951      -43.3340311483  TIP3      5078            0.0000000000
     23809      5142  TIP3      H1             -0.7708148389      -10.8338246013      -43.6047460760  TIP3      5078            0.0000000000
     23810      5142  TIP3      H2              0.4797845805      -10.1134133859      -43.2758109275  TIP3      5078            0.0000000000
     23811      5143  TIP3      OH2            -3.8445185685      -16.4175353393      -47.7913857531  TIP3      5079            0.0000000000
     23812      5143  TIP3      H1             -4.2809615914      -15.5507744361      -47.8699101863  TIP3      5079            0.0000000000
     23813      5143  TIP3      H2             -4.3884782219      -16.9744137860      -48.3653065876  TIP3      5079            0.0000000000
     23814      5144  TIP3      OH2            -3.1028326811      -14.1626264805      -45.6057729917  TIP3      5080            0.0000000000
     23815      5144  TIP3      H1             -2.8166936865      -15.0083578018      -45.2004988376  TIP3      5080            0.0000000000
     23816      5144  TIP3      H2             -2.4540800551      -14.0511014619      -46.3140878428  TIP3      5080            0.0000000000
     23817      5145  TIP3      OH2             7.0428396272       -5.9664038239      -44.7997463446  TIP3      5081            0.0000000000
     23818      5145  TIP3      H1              7.7054413869       -6.6354961014      -45.1039090332  TIP3      5081            0.0000000000
     23819      5145  TIP3      H2              6.8117546850       -6.3510477478      -43.9505662631  TIP3      5081            0.0000000000
     23820      5146  TIP3      OH2             4.6294547592      -11.7094019044      -42.8163600798  TIP3      5082            0.0000000000
     23821      5146  TIP3      H1              4.9545522789      -12.3127442519      -43.5028808950  TIP3      5082            0.0000000000
     23822      5146  TIP3      H2              5.4638954973      -11.5364651834      -42.3407902158  TIP3      5082            0.0000000000
     23823      5147  TIP3      OH2            13.2651510394      -20.1099311354      -42.1289384966  TIP3      5083            0.0000000000
     23824      5147  TIP3      H1             13.4080768299      -19.4863212142      -41.3791013950  TIP3      5083            0.0000000000
     23825      5147  TIP3      H2             13.7817499917      -19.6543595068      -42.8110929003  TIP3      5083            0.0000000000
     23826      5148  TIP3      OH2             7.8021819293      -17.2490136024      -42.5068101573  TIP3      5084            0.0000000000
     23827      5148  TIP3      H1              7.9752396407      -18.2092582785      -42.5018862441  TIP3      5084            0.0000000000
     23828      5148  TIP3      H2              7.6999980846      -17.1003185894      -43.4683288699  TIP3      5084            0.0000000000
     23829      5149  TIP3      OH2             0.8633260189      -19.0857862636      -45.3430677390  TIP3      5085            0.0000000000
     23830      5149  TIP3      H1              1.0343103856      -18.2811573590      -45.8705381785  TIP3      5085            0.0000000000
     23831      5149  TIP3      H2              0.5497614143      -19.7202298667      -46.0219205508  TIP3      5085            0.0000000000
     23832      5150  TIP3      OH2             8.6897592328      -19.1418221876      -46.9886623534  TIP3      5086            0.0000000000
     23833      5150  TIP3      H1              9.2944720817      -19.4126416551      -46.2609945809  TIP3      5086            0.0000000000
     23834      5150  TIP3      H2              9.2347675750      -18.4765938110      -47.4334921645  TIP3      5086            0.0000000000
     23835      5151  TIP3      OH2            -2.4742787408      -16.7014933121      -44.5850351284  TIP3      5087            0.0000000000
     23836      5151  TIP3      H1             -1.8031453374      -17.2400553458      -44.1328659073  TIP3      5087            0.0000000000
     23837      5151  TIP3      H2             -2.3626235230      -17.0042558693      -45.5046591027  TIP3      5087            0.0000000000
     23838      5152  TIP3      OH2             2.6729873062      -15.1572092873      -45.2366876989  TIP3      5088            0.0000000000
     23839      5152  TIP3      H1              3.3685111865      -15.7443463181      -44.8929089411  TIP3      5088            0.0000000000
     23840      5152  TIP3      H2              2.1866635914      -15.7896096147      -45.8008490113  TIP3      5088            0.0000000000
     23841      5153  TIP3      OH2            13.6963907163      -18.5927394165      -39.8751550261  TIP3      5089            0.0000000000
     23842      5153  TIP3      H1             13.0727071678      -17.8430062161      -39.9799764249  TIP3      5089            0.0000000000
     23843      5153  TIP3      H2             13.6858698865      -18.7139766706      -38.9171012563  TIP3      5089            0.0000000000
     23844      5154  TIP3      OH2            -0.2097810770      -20.2163950427      -41.3265041592  TIP3      5090            0.0000000000
     23845      5154  TIP3      H1             -0.4875126709      -19.6073219492      -42.0507165251  TIP3      5090            0.0000000000
     23846      5154  TIP3      H2             -0.8605517649      -19.9847925095      -40.6124598083  TIP3      5090            0.0000000000
     23847      5155  TIP3      OH2             7.0813438730      -10.7641233645      -47.7427355691  TIP3      5091            0.0000000000
     23848      5155  TIP3      H1              6.8641640613      -11.0107305545      -48.6550877214  TIP3      5091            0.0000000000
     23849      5155  TIP3      H2              6.7939042768       -9.8255787743      -47.6935520248  TIP3      5091            0.0000000000
     23850      5156  TIP3      OH2             2.3212057076      -12.5888786822      -41.0823805435  TIP3      5092            0.0000000000
     23851      5156  TIP3      H1              1.6363969436      -11.9401637397      -40.8165399591  TIP3      5092            0.0000000000
     23852      5156  TIP3      H2              3.0348629530      -11.9970599342      -41.3743496855  TIP3      5092            0.0000000000
     23853      5157  TIP3      OH2            10.4335914610      -19.6279684392      -44.9171654334  TIP3      5093            0.0000000000
     23854      5157  TIP3      H1             10.2593598648      -20.4619308521      -44.4547892345  TIP3      5093            0.0000000000
     23855      5157  TIP3      H2             11.1588179032      -19.2782243337      -44.3804644037  TIP3      5093            0.0000000000
     23856      5158  TIP3      OH2            -0.5893434519      -18.3305105692      -43.2545941090  TIP3      5094            0.0000000000
     23857      5158  TIP3      H1              0.0534439816      -17.6518574960      -42.9535214827  TIP3      5094            0.0000000000
     23858      5158  TIP3      H2             -0.0892510032      -18.7739074295      -43.9894085490  TIP3      5094            0.0000000000
     23859      5159  TIP3      OH2             0.7945865334      -10.5657853347      -40.2455062837  TIP3      5095            0.0000000000
     23860      5159  TIP3      H1              0.7313582571       -9.6468018021      -40.5701681865  TIP3      5095            0.0000000000
     23861      5159  TIP3      H2             -0.0878395467      -10.6602155370      -39.8043983001  TIP3      5095            0.0000000000
     23862      5160  TIP3      OH2            -3.1347337097      -11.0023286693      -49.4701472406  TIP3      5096            0.0000000000
     23863      5160  TIP3      H1             -3.3739595770      -10.6080397681      -50.3281728257  TIP3      5096            0.0000000000
     23864      5160  TIP3      H2             -3.0435768513      -10.2057349319      -48.9103888256  TIP3      5096            0.0000000000
     23865      5161  TIP3      OH2            10.4594313410       -9.2907825086      -42.6825940026  TIP3      5097            0.0000000000
     23866      5161  TIP3      H1              9.4905152273       -9.1704451430      -42.5634133976  TIP3      5097            0.0000000000
     23867      5161  TIP3      H2             10.7273681484       -8.3814139733      -42.9099538628  TIP3      5097            0.0000000000
     23868      5162  TIP3      OH2            10.8629219848      -21.0255241483      -41.1686204423  TIP3      5098            0.0000000000
     23869      5162  TIP3      H1             10.0820151133      -20.4974439886      -41.4066034277  TIP3      5098            0.0000000000
     23870      5162  TIP3      H2             11.5036309889      -20.6504614481      -41.7971524799  TIP3      5098            0.0000000000
     23871      5163  TIP3      OH2             3.9452426029      -22.6493497852      -43.7271598023  TIP3      5099            0.0000000000
     23872      5163  TIP3      H1              3.8005095646      -23.6097938444      -43.8236543760  TIP3      5099            0.0000000000
     23873      5163  TIP3      H2              3.0391372147      -22.3412002503      -43.5875434515  TIP3      5099            0.0000000000
     23874      5164  TIP3      OH2             8.7333810144       -7.5068920106      -46.1041613279  TIP3      5100            0.0000000000
     23875      5164  TIP3      H1              9.1364604747       -8.2389135429      -46.6170376885  TIP3      5100            0.0000000000
     23876      5164  TIP3      H2              9.2199197822       -6.7374962534      -46.4731855242  TIP3      5100            0.0000000000
     23877      5165  TIP3      OH2             9.9567756410       -9.5888855152      -47.5706955746  TIP3      5101            0.0000000000
     23878      5165  TIP3      H1              9.6428963644      -10.2731748417      -48.1831873926  TIP3      5101            0.0000000000
     23879      5165  TIP3      H2              9.9808125835      -10.0888894028      -46.7353516640  TIP3      5101            0.0000000000
     23880      5166  TIP3      OH2            11.5310020913      -10.9712596480      -39.0833191528  TIP3      5102            0.0000000000
     23881      5166  TIP3      H1             11.7004784937      -11.6590707785      -39.7665525515  TIP3      5102            0.0000000000
     23882      5166  TIP3      H2             11.7686295046      -10.1528083185      -39.5591944383  TIP3      5102            0.0000000000
     23883      5167  TIP3      OH2             6.0359393568      -14.1354173175      -49.3450706076  TIP3      5103            0.0000000000
     23884      5167  TIP3      H1              5.3646995334      -13.5197576219      -49.6925411222  TIP3      5103            0.0000000000
     23885      5167  TIP3      H2              6.7703080988      -13.9933668721      -49.9736301666  TIP3      5103            0.0000000000
     23886      5168  TIP3      OH2             6.1576334361      -15.5052877654      -52.3237660339  TIP3      5104            0.0000000000
     23887      5168  TIP3      H1              6.8674918246      -15.4908050024      -51.6576948305  TIP3      5104            0.0000000000
     23888      5168  TIP3      H2              6.4517119150      -16.2526800048      -52.8515688578  TIP3      5104            0.0000000000
     23889      5169  TIP3      OH2            13.4490955720      -14.6609589376      -41.0687449618  TIP3      5105            0.0000000000
     23890      5169  TIP3      H1             12.8087256806      -13.9237859362      -41.0320828692  TIP3      5105            0.0000000000
     23891      5169  TIP3      H2             13.9726998408      -14.4142758561      -41.8550559455  TIP3      5105            0.0000000000
     23892      5170  TIP3      OH2             9.5320451800      -13.9396395157      -48.4034693033  TIP3      5106            0.0000000000
     23893      5170  TIP3      H1              8.7948297223      -13.6665521986      -47.8094392146  TIP3      5106            0.0000000000
     23894      5170  TIP3      H2             10.0224207034      -14.5727929045      -47.8498012224  TIP3      5106            0.0000000000
     23895      5171  TIP3      OH2             9.4427425847      -15.7341185345      -39.2510464307  TIP3      5107            0.0000000000
     23896      5171  TIP3      H1              9.4343185375      -14.8985175664      -38.7577026624  TIP3      5107            0.0000000000
     23897      5171  TIP3      H2              8.8263139178      -15.4627059844      -39.9606709807  TIP3      5107            0.0000000000
     23898      5172  TIP3      OH2             1.1224564584      -13.2288310742      -46.4848864990  TIP3      5108            0.0000000000
     23899      5172  TIP3      H1              0.8077466701      -13.6241898074      -47.3346779788  TIP3      5108            0.0000000000
     23900      5172  TIP3      H2              1.7337883876      -13.9216804069      -46.1464646776  TIP3      5108            0.0000000000
     23901      5173  TIP3      OH2             2.4241137181       -9.8874866822      -43.8052086538  TIP3      5109            0.0000000000
     23902      5173  TIP3      H1              2.4488805041      -10.3680258256      -44.6445346201  TIP3      5109            0.0000000000
     23903      5173  TIP3      H2              3.2230238077      -10.2202218300      -43.3543403655  TIP3      5109            0.0000000000
     23904      5174  TIP3      OH2             1.4295432372      -14.4887831337      -42.7981150089  TIP3      5110            0.0000000000
     23905      5174  TIP3      H1              1.9578067098      -14.4118471562      -43.6183231375  TIP3      5110            0.0000000000
     23906      5174  TIP3      H2              1.8461870225      -13.8092808914      -42.2179751364  TIP3      5110            0.0000000000
     23907      5175  TIP3      OH2             7.8894112095       -8.8987952482      -42.0967917917  TIP3      5111            0.0000000000
     23908      5175  TIP3      H1              7.6000402829       -8.2620821772      -41.4308029341  TIP3      5111            0.0000000000
     23909      5175  TIP3      H2              7.6352261186       -9.7548857839      -41.6841502841  TIP3      5111            0.0000000000
     23910      5176  TIP3      OH2             2.4044610930      -10.0503055704      -38.1141202651  TIP3      5112            0.0000000000
     23911      5176  TIP3      H1              1.9474105621       -9.3396883307      -37.6152845976  TIP3      5112            0.0000000000
     23912      5176  TIP3      H2              1.7504454798      -10.2664882704      -38.8229669456  TIP3      5112            0.0000000000
     23913      5177  TIP3      OH2             8.4088310432      -14.6625406016      -50.7514043553  TIP3      5113            0.0000000000
     23914      5177  TIP3      H1              8.9518594162      -14.4991504947      -49.9417518593  TIP3      5113            0.0000000000
     23915      5177  TIP3      H2              8.8841967362      -14.1798388350      -51.4696071263  TIP3      5113            0.0000000000
     23916      5178  TIP3      OH2            -0.6385951332      -13.8941819289      -39.0171313443  TIP3      5114            0.0000000000
     23917      5178  TIP3      H1             -0.5696169177      -13.2444026815      -38.2946216677  TIP3      5114            0.0000000000
     23918      5178  TIP3      H2             -1.5976454609      -13.8424990300      -39.1669332897  TIP3      5114            0.0000000000
     23919      5179  TIP3      OH2             6.1047593894       -7.9629836713      -47.2702302497  TIP3      5115            0.0000000000
     23920      5179  TIP3      H1              6.5163813689       -7.6583321945      -46.4530548987  TIP3      5115            0.0000000000
     23921      5179  TIP3      H2              5.5499191771       -7.2136422411      -47.5218655260  TIP3      5115            0.0000000000
     23922      5180  TIP3      OH2             0.6626671991       -8.0428220054      -37.3837408065  TIP3      5116            0.0000000000
     23923      5180  TIP3      H1              0.5697668291       -8.1124404400      -38.3520983434  TIP3      5116            0.0000000000
     23924      5180  TIP3      H2             -0.2584302710       -8.1869683264      -37.0929647184  TIP3      5116            0.0000000000
     23925      5181  TIP3      OH2            12.1529418096      -22.9652298852      -50.8370503144  TIP3      5117            0.0000000000
     23926      5181  TIP3      H1             11.2456227486      -22.8085837994      -50.5331417980  TIP3      5117            0.0000000000
     23927      5181  TIP3      H2             12.3784035087      -22.1025076044      -51.2279189799  TIP3      5117            0.0000000000
     23928      5182  TIP3      OH2             0.0561850159      -14.2432203930      -48.8248311128  TIP3      5118            0.0000000000
     23929      5182  TIP3      H1             -0.2095315025      -13.4571811347      -49.3489122523  TIP3      5118            0.0000000000
     23930      5182  TIP3      H2             -0.5676014492      -14.9134044559      -49.1149658914  TIP3      5118            0.0000000000
     23931      5183  TIP3      OH2            13.2312836024       -8.5994622619      -52.4794837556  TIP3      5119            0.0000000000
     23932      5183  TIP3      H1             13.4210338209       -7.6625750514      -52.2941488618  TIP3      5119            0.0000000000
     23933      5183  TIP3      H2             14.1416576913       -8.9510229422      -52.4417273263  TIP3      5119            0.0000000000
     23934      5184  TIP3      OH2            -3.8284720280      -11.7800484640      -39.9288332869  TIP3      5120            0.0000000000
     23935      5184  TIP3      H1             -4.2639770353      -11.8641190986      -40.7952740123  TIP3      5120            0.0000000000
     23936      5184  TIP3      H2             -3.7124618263      -12.7282821834      -39.7216949461  TIP3      5120            0.0000000000
     23937      5185  TIP3      OH2            -4.0744313221       -9.0493830880      -43.1814518943  TIP3      5121            0.0000000000
     23938      5185  TIP3      H1             -3.1171497910       -9.1677345027      -43.2020158567  TIP3      5121            0.0000000000
     23939      5185  TIP3      H2             -4.1468657030       -8.2174578659      -42.6969626775  TIP3      5121            0.0000000000
     23940      5186  TIP3      OH2            14.1785339089       -8.3353227190      -37.4683752626  TIP3      5122            0.0000000000
     23941      5186  TIP3      H1             14.0447201745       -9.2939242882      -37.5218942532  TIP3      5122            0.0000000000
     23942      5186  TIP3      H2             13.2944839943       -8.0813749880      -37.1129917106  TIP3      5122            0.0000000000
     23943      5187  TIP3      OH2             5.1280081009       -8.8126892499      -38.6288701725  TIP3      5123            0.0000000000
     23944      5187  TIP3      H1              5.1758277415       -7.9683569157      -38.1211939248  TIP3      5123            0.0000000000
     23945      5187  TIP3      H2              4.2578301381       -9.1823267380      -38.3844672650  TIP3      5123            0.0000000000
     23946      5188  TIP3      OH2             5.6021325489       -5.0709315593      -48.8659684150  TIP3      5124            0.0000000000
     23947      5188  TIP3      H1              5.4669861282       -5.1280362797      -49.8289444901  TIP3      5124            0.0000000000
     23948      5188  TIP3      H2              5.5811317474       -4.1136405834      -48.6858172336  TIP3      5124            0.0000000000
     23949      5189  TIP3      OH2            -0.7811732998       -6.1805503216      -47.0138323468  TIP3      5125            0.0000000000
     23950      5189  TIP3      H1             -0.6269798206       -6.5958465455      -46.1340334177  TIP3      5125            0.0000000000
     23951      5189  TIP3      H2             -1.6299964871       -6.5945245734      -47.2506250537  TIP3      5125            0.0000000000
     23952      5190  TIP3      OH2             8.6189642461       -5.8623996694      -51.8728695019  TIP3      5126            0.0000000000
     23953      5190  TIP3      H1              9.1194911690       -6.6000388842      -52.2969059513  TIP3      5126            0.0000000000
     23954      5190  TIP3      H2              8.6815780468       -6.0938064546      -50.9241264632  TIP3      5126            0.0000000000
     23955      5191  TIP3      OH2             8.3328488500       -5.9177464065      -49.0879765657  TIP3      5127            0.0000000000
     23956      5191  TIP3      H1              7.3703391755       -5.8278455395      -48.9408791825  TIP3      5127            0.0000000000
     23957      5191  TIP3      H2              8.5403195354       -6.6650624162      -48.5089409005  TIP3      5127            0.0000000000
     23958      5192  TIP3      OH2            11.3151610649      -16.8897798502      -37.0326098985  TIP3      5128            0.0000000000
     23959      5192  TIP3      H1             10.8267618672      -16.4380806863      -37.7387813938  TIP3      5128            0.0000000000
     23960      5192  TIP3      H2             11.2916841171      -17.8119010538      -37.3314106329  TIP3      5128            0.0000000000
     23961      5193  TIP3      OH2            -1.5194175740      -10.4769748691      -39.0179113630  TIP3      5129            0.0000000000
     23962      5193  TIP3      H1             -1.3158883446      -10.8225711895      -38.1226601789  TIP3      5129            0.0000000000
     23963      5193  TIP3      H2             -2.3968453375      -10.8598047654      -39.2274514671  TIP3      5129            0.0000000000
     23964      5194  TIP3      OH2             1.1633595380      -21.4204410600      -43.2252971763  TIP3      5130            0.0000000000
     23965      5194  TIP3      H1              0.3183006360      -21.8527271497      -43.5044233001  TIP3      5130            0.0000000000
     23966      5194  TIP3      H2              0.8426855318      -20.9576744213      -42.4307148125  TIP3      5130            0.0000000000
     23967      5195  TIP3      OH2             5.8074122700      -22.0569702345      -39.4867575373  TIP3      5131            0.0000000000
     23968      5195  TIP3      H1              6.2730023034      -22.7222052493      -38.9733223871  TIP3      5131            0.0000000000
     23969      5195  TIP3      H2              4.9272678097      -22.4305896097      -39.5159414894  TIP3      5131            0.0000000000
     23970      5196  TIP3      OH2             9.0543873685      -18.5157965719      -38.8141282025  TIP3      5132            0.0000000000
     23971      5196  TIP3      H1              8.4839259991      -18.6958348415      -38.0332322469  TIP3      5132            0.0000000000
     23972      5196  TIP3      H2              8.9010654604      -17.5785033602      -39.0377268915  TIP3      5132            0.0000000000
     23973      5197  TIP3      OH2             9.8480169604      -13.6264991648      -52.8316353974  TIP3      5133            0.0000000000
     23974      5197  TIP3      H1              9.7783955586      -13.8194478858      -53.7940207363  TIP3      5133            0.0000000000
     23975      5197  TIP3      H2             10.7087838950      -13.1840009120      -52.8452266150  TIP3      5133            0.0000000000
     23976      5198  TIP3      OH2             5.4541007195      -19.7345282914      -52.3744971864  TIP3      5134            0.0000000000
     23977      5198  TIP3      H1              5.1046166629      -19.8145906431      -51.4713969655  TIP3      5134            0.0000000000
     23978      5198  TIP3      H2              5.1082258737      -20.5791609768      -52.7268610906  TIP3      5134            0.0000000000
     23979      5199  TIP3      OH2             1.2587851285      -16.9996925321      -41.7961138292  TIP3      5135            0.0000000000
     23980      5199  TIP3      H1              0.5289416529      -17.0066854440      -41.1497543630  TIP3      5135            0.0000000000
     23981      5199  TIP3      H2              1.2000629388      -16.0979026449      -42.1886614724  TIP3      5135            0.0000000000
     23982      5200  TIP3      OH2             1.2214017984      -16.8896325065      -46.9817624048  TIP3      5136            0.0000000000
     23983      5200  TIP3      H1              0.2793148435      -17.1502711925      -47.0654550686  TIP3      5136            0.0000000000
     23984      5200  TIP3      H2              1.5818732492      -17.2027219802      -47.8365864791  TIP3      5136            0.0000000000
     23985      5201  TIP3      OH2             6.7515989273      -16.3747581658      -48.1828771968  TIP3      5137            0.0000000000
     23986      5201  TIP3      H1              6.3578314088      -15.5551748500      -48.5634759527  TIP3      5137            0.0000000000
     23987      5201  TIP3      H2              7.4209838796      -16.5732407116      -48.8583762356  TIP3      5137            0.0000000000
     23988      5202  TIP3      OH2             5.7597937964      -16.1846988647      -36.7634299949  TIP3      5138            0.0000000000
     23989      5202  TIP3      H1              5.2686760745      -16.9989822536      -36.4827887450  TIP3      5138            0.0000000000
     23990      5202  TIP3      H2              6.6033536136      -16.2742252352      -36.2870076017  TIP3      5138            0.0000000000
     23991      5203  TIP3      OH2             7.7925618651      -16.8881517808      -45.3206165227  TIP3      5139            0.0000000000
     23992      5203  TIP3      H1              7.4727428584      -16.3229873282      -46.0455463385  TIP3      5139            0.0000000000
     23993      5203  TIP3      H2              7.8458102330      -17.7396766942      -45.7838277136  TIP3      5139            0.0000000000
     23994      5204  TIP3      OH2            -1.1286563432      -16.7619980401      -40.1688919588  TIP3      5140            0.0000000000
     23995      5204  TIP3      H1             -0.9984319754      -16.3634632300      -39.2920686171  TIP3      5140            0.0000000000
     23996      5204  TIP3      H2             -1.5595626874      -17.5989878751      -39.9369999508  TIP3      5140            0.0000000000
     23997      5205  TIP3      OH2             2.2120027461      -19.3941091142      -53.2818256065  TIP3      5141            0.0000000000
     23998      5205  TIP3      H1              1.7284278546      -19.8136775900      -52.5323038104  TIP3      5141            0.0000000000
     23999      5205  TIP3      H2              1.5259030464      -18.9455018622      -53.7971374141  TIP3      5141            0.0000000000
     24000      5206  TIP3      OH2            -4.4369170209      -19.6545893267      -46.1108407357  TIP3      5142            0.0000000000
     24001      5206  TIP3      H1             -3.7168716895      -19.6716202113      -45.4525732212  TIP3      5142            0.0000000000
     24002      5206  TIP3      H2             -4.0347250911      -20.0306677734      -46.9217383857  TIP3      5142            0.0000000000
     24003      5207  TIP3      OH2            -3.2221156195      -18.9282402374      -50.7857530564  TIP3      5143            0.0000000000
     24004      5207  TIP3      H1             -2.6818340335      -18.3462480871      -51.3517997199  TIP3      5143            0.0000000000
     24005      5207  TIP3      H2             -3.9009304745      -18.2910689198      -50.4905625632  TIP3      5143            0.0000000000
     24006      5208  TIP3      OH2             6.9377128539      -15.3315188445      -40.8254569363  TIP3      5144            0.0000000000
     24007      5208  TIP3      H1              7.3435084612      -16.0306157228      -41.3859498153  TIP3      5144            0.0000000000
     24008      5208  TIP3      H2              6.4650081432      -15.8522272478      -40.1517594919  TIP3      5144            0.0000000000
     24009      5209  TIP3      OH2             3.7601661280      -19.2642550210      -45.9369219696  TIP3      5145            0.0000000000
     24010      5209  TIP3      H1              2.8297990901      -19.4086308278      -45.6610353170  TIP3      5145            0.0000000000
     24011      5209  TIP3      H2              4.2412154291      -19.5566681858      -45.1432721020  TIP3      5145            0.0000000000
     24012      5210  TIP3      OH2            -1.4284521257      -17.7713866960      -47.1045298287  TIP3      5146            0.0000000000
     24013      5210  TIP3      H1             -2.3129455890      -17.6536498066      -47.5074104194  TIP3      5146            0.0000000000
     24014      5210  TIP3      H2             -1.1382856058      -18.6316496826      -47.4724313495  TIP3      5146            0.0000000000
     24015      5211  TIP3      OH2             2.2085502448      -17.7304092914      -49.4426576132  TIP3      5147            0.0000000000
     24016      5211  TIP3      H1              3.1700276529      -17.6450164839      -49.3105026934  TIP3      5147            0.0000000000
     24017      5211  TIP3      H2              1.9686678097      -17.0531851085      -50.1024630996  TIP3      5147            0.0000000000
     24018      5212  TIP3      OH2             8.1944689646      -20.1951169125      -42.7355137201  TIP3      5148            0.0000000000
     24019      5212  TIP3      H1              7.5125383356      -20.0857483737      -42.0432932790  TIP3      5148            0.0000000000
     24020      5212  TIP3      H2              7.6857154517      -20.4472498933      -43.5179062123  TIP3      5148            0.0000000000
     24021      5213  TIP3      OH2             0.9305662878      -16.5652460572      -51.8685221919  TIP3      5149            0.0000000000
     24022      5213  TIP3      H1              0.4010237143      -16.9587603177      -52.5821357675  TIP3      5149            0.0000000000
     24023      5213  TIP3      H2              1.7486236196      -16.3531897869      -52.3442397124  TIP3      5149            0.0000000000
     24024      5214  TIP3      OH2            11.3502359271       -4.4698427594      -36.3799741945  TIP3      5150            0.0000000000
     24025      5214  TIP3      H1             11.6201167393       -4.1006305596      -37.2398727291  TIP3      5150            0.0000000000
     24026      5214  TIP3      H2             12.0781581697       -4.1523903198      -35.8243350625  TIP3      5150            0.0000000000
     24027      5215  TIP3      OH2            -0.9664492903      -11.9941287061      -36.7989396091  TIP3      5151            0.0000000000
     24028      5215  TIP3      H1             -0.2339367868      -11.7552774064      -36.2049678864  TIP3      5151            0.0000000000
     24029      5215  TIP3      H2             -1.7277787398      -11.9646187285      -36.1797507402  TIP3      5151            0.0000000000
     24030      5216  TIP3      OH2             5.0452951494      -16.5879124673      -44.0525430793  TIP3      5152            0.0000000000
     24031      5216  TIP3      H1              5.6441944049      -17.1223368978      -44.5854571673  TIP3      5152            0.0000000000
     24032      5216  TIP3      H2              4.8643437376      -17.1682737470      -43.2993427295  TIP3      5152            0.0000000000
     24033      5217  TIP3      OH2            -0.0097286783      -20.4475217887      -47.6453496977  TIP3      5153            0.0000000000
     24034      5217  TIP3      H1             -0.3134322798      -21.3672591612      -47.5724946914  TIP3      5153            0.0000000000
     24035      5217  TIP3      H2              0.8136944121      -20.5653699001      -48.1436302887  TIP3      5153            0.0000000000
     24036      5218  TIP3      OH2             3.7230130336      -18.2484482105      -41.7013100468  TIP3      5154            0.0000000000
     24037      5218  TIP3      H1              2.8857440992      -17.7425986202      -41.5925772417  TIP3      5154            0.0000000000
     24038      5218  TIP3      H2              4.2538521916      -17.9165638298      -40.9517936901  TIP3      5154            0.0000000000
     24039      5219  TIP3      OH2             4.2688974111      -12.0571622684      -49.9296960309  TIP3      5155            0.0000000000
     24040      5219  TIP3      H1              3.4624144797      -12.5027589132      -50.2778371641  TIP3      5155            0.0000000000
     24041      5219  TIP3      H2              4.0139545932      -11.8835924966      -49.0003707352  TIP3      5155            0.0000000000
     24042      5220  TIP3      OH2            11.4949600074      -12.8066415430      -41.1379287884  TIP3      5156            0.0000000000
     24043      5220  TIP3      H1             12.0283792260      -12.3192718392      -41.7948019119  TIP3      5156            0.0000000000
     24044      5220  TIP3      H2             10.6247263217      -12.8089720012      -41.5855050480  TIP3      5156            0.0000000000
     24045      5221  TIP3      OH2             8.0892553586      -19.2291884043      -51.7743026104  TIP3      5157            0.0000000000
     24046      5221  TIP3      H1              7.1332942577      -19.0757058893      -51.9110755939  TIP3      5157            0.0000000000
     24047      5221  TIP3      H2              8.4373562090      -18.3877713064      -51.4087444213  TIP3      5157            0.0000000000
     24048      5222  TIP3      OH2             5.7614746132      -11.7331829706      -38.6975591630  TIP3      5158            0.0000000000
     24049      5222  TIP3      H1              5.4128318564      -12.1966718620      -37.9284163684  TIP3      5158            0.0000000000
     24050      5222  TIP3      H2              5.4674270861      -10.8272581299      -38.5556071197  TIP3      5158            0.0000000000
     24051      5223  TIP3      OH2             8.8265727784      -17.2815325997      -50.1789205922  TIP3      5159            0.0000000000
     24052      5223  TIP3      H1              9.6918718597      -17.4246669144      -49.7306073651  TIP3      5159            0.0000000000
     24053      5223  TIP3      H2              8.9574864397      -16.4564533801      -50.6735722146  TIP3      5159            0.0000000000
     24054      5224  TIP3      OH2            -0.6062102459      -12.6141758894      -44.1437553614  TIP3      5160            0.0000000000
     24055      5224  TIP3      H1              0.0300005363      -12.7267903317      -44.8757133256  TIP3      5160            0.0000000000
     24056      5224  TIP3      H2             -0.5495791615      -13.4614889278      -43.6693492209  TIP3      5160            0.0000000000
     24057      5225  TIP3      OH2             6.3448876251      -10.5830926829      -50.9054858373  TIP3      5161            0.0000000000
     24058      5225  TIP3      H1              6.0002948606       -9.7283373766      -50.5646693153  TIP3      5161            0.0000000000
     24059      5225  TIP3      H2              5.6177572390      -11.1999593011      -50.6747565575  TIP3      5161            0.0000000000
     24060      5226  TIP3      OH2            -3.6255387655      -14.2492697201      -38.8910632782  TIP3      5162            0.0000000000
     24061      5226  TIP3      H1             -3.4837450903      -14.6973476943      -38.0336933401  TIP3      5162            0.0000000000
     24062      5226  TIP3      H2             -4.2560226485      -14.8376529347      -39.3442322325  TIP3      5162            0.0000000000
     24063      5227  TIP3      OH2             3.3855743678      -14.6730142405      -36.7300566486  TIP3      5163            0.0000000000
     24064      5227  TIP3      H1              3.0471554375      -15.0323168481      -37.5642226988  TIP3      5163            0.0000000000
     24065      5227  TIP3      H2              4.2992680358      -15.0298696062      -36.7303746788  TIP3      5163            0.0000000000
     24066      5228  TIP3      OH2             8.0970804332       -9.3278130779      -38.7243295184  TIP3      5164            0.0000000000
     24067      5228  TIP3      H1              7.1716362371       -9.1680325882      -38.9737849673  TIP3      5164            0.0000000000
     24068      5228  TIP3      H2              8.0435794480       -9.0318924211      -37.7941734249  TIP3      5164            0.0000000000
     24069      5229  TIP3      OH2            13.7102052314      -17.1616498295      -50.3637524492  TIP3      5165            0.0000000000
     24070      5229  TIP3      H1             13.1729635156      -17.4439279237      -51.1302819696  TIP3      5165            0.0000000000
     24071      5229  TIP3      H2             13.7941646805      -16.2074584181      -50.5906802575  TIP3      5165            0.0000000000
     24072      5230  TIP3      OH2            13.7250151796      -11.3096385642      -37.5816349501  TIP3      5166            0.0000000000
     24073      5230  TIP3      H1             12.8291248079      -11.0784982573      -37.9278898837  TIP3      5166            0.0000000000
     24074      5230  TIP3      H2             14.2585341265      -11.3673577156      -38.4047486151  TIP3      5166            0.0000000000
     24075      5231  TIP3      OH2            11.9628052583       -8.3602290930      -49.9981082290  TIP3      5167            0.0000000000
     24076      5231  TIP3      H1             11.6508517978       -9.1959537589      -49.6358722464  TIP3      5167            0.0000000000
     24077      5231  TIP3      H2             12.3592968396       -8.5891331732      -50.8544287719  TIP3      5167            0.0000000000
     24078      5232  TIP3      OH2             9.2464681295      -13.5197693626      -42.8607314175  TIP3      5168            0.0000000000
     24079      5232  TIP3      H1              8.3044629397      -13.7201428913      -42.9856941363  TIP3      5168            0.0000000000
     24080      5232  TIP3      H2              9.6765226007      -14.2631057411      -43.3246946340  TIP3      5168            0.0000000000
     24081      5233  TIP3      OH2             1.7645311810       -9.1735378358      -46.7457818814  TIP3      5169            0.0000000000
     24082      5233  TIP3      H1              2.2537538348       -8.3599443699      -46.9566761067  TIP3      5169            0.0000000000
     24083      5233  TIP3      H2              0.8883442204       -8.9568274042      -47.0935724617  TIP3      5169            0.0000000000
     24084      5234  TIP3      OH2            -2.4655689747      -14.3564703387      -52.1800249167  TIP3      5170            0.0000000000
     24085      5234  TIP3      H1             -1.9013918257      -13.6828048644      -51.7607281432  TIP3      5170            0.0000000000
     24086      5234  TIP3      H2             -3.3697218508      -14.0578556987      -51.9561050368  TIP3      5170            0.0000000000
     24087      5235  TIP3      OH2             3.1459486848      -11.5044786067      -47.2736464088  TIP3      5171            0.0000000000
     24088      5235  TIP3      H1              2.8077525563      -10.5988490069      -47.1506276997  TIP3      5171            0.0000000000
     24089      5235  TIP3      H2              2.4728663673      -12.0318112526      -46.7986878481  TIP3      5171            0.0000000000
     24090      5236  TIP3      OH2             3.6116501902       -7.3221034628      -40.7952010546  TIP3      5172            0.0000000000
     24091      5236  TIP3      H1              4.1059287101       -6.5506434637      -41.1072266513  TIP3      5172            0.0000000000
     24092      5236  TIP3      H2              4.2414237610       -7.6925294921      -40.1527422323  TIP3      5172            0.0000000000
     24093      5237  TIP3      OH2             1.8456862098       -6.5423687275      -47.7430616435  TIP3      5173            0.0000000000
     24094      5237  TIP3      H1              0.8860254158       -6.3933522034      -47.5780182557  TIP3      5173            0.0000000000
     24095      5237  TIP3      H2              2.2245939430       -5.7081835139      -47.4093915192  TIP3      5173            0.0000000000
     24096      5238  TIP3      OH2             7.0918476021      -11.3687711911      -41.2253200517  TIP3      5174            0.0000000000
     24097      5238  TIP3      H1              6.8247783876      -11.5411771705      -40.2970205922  TIP3      5174            0.0000000000
     24098      5238  TIP3      H2              7.7546134193      -12.0601608724      -41.3927448725  TIP3      5174            0.0000000000
     24099      5239  TIP3      OH2             9.5164093044      -10.2292737062      -52.1238471628  TIP3      5175            0.0000000000
     24100      5239  TIP3      H1              9.7995583444      -10.7260712269      -51.3300331482  TIP3      5175            0.0000000000
     24101      5239  TIP3      H2              8.5657128572      -10.4348216316      -52.0715871371  TIP3      5175            0.0000000000
     24102      5240  TIP3      OH2             9.9810497725       -6.7649256241      -38.7380885522  TIP3      5176            0.0000000000
     24103      5240  TIP3      H1              9.2643537114       -7.2473125860      -39.1908218863  TIP3      5176            0.0000000000
     24104      5240  TIP3      H2             10.1442405841       -6.0648089032      -39.4078153895  TIP3      5176            0.0000000000
     24105      5241  TIP3      OH2            13.9458494948       -5.9121883867      -51.8325219324  TIP3      5177            0.0000000000
     24106      5241  TIP3      H1             14.6078278318       -5.2468535040      -52.1068047396  TIP3      5177            0.0000000000
     24107      5241  TIP3      H2             13.2244086647       -5.2924877007      -51.5700722896  TIP3      5177            0.0000000000
     24108      5242  TIP3      OH2            -1.9627060040      -19.6025609780      -39.3563032924  TIP3      5178            0.0000000000
     24109      5242  TIP3      H1             -2.8416959283      -19.1991298952      -39.3111061038  TIP3      5178            0.0000000000
     24110      5242  TIP3      H2             -2.1198703873      -20.4327799699      -38.8731588884  TIP3      5178            0.0000000000
     24111      5243  TIP3      OH2            10.2523611391      -11.6167120219      -49.8710604447  TIP3      5179            0.0000000000
     24112      5243  TIP3      H1             10.0124411706      -12.4184335975      -49.3585316960  TIP3      5179            0.0000000000
     24113      5243  TIP3      H2             11.2110465426      -11.5991567096      -49.7209565292  TIP3      5179            0.0000000000
     24114      5244  TIP3      OH2            -2.3741198044       -7.7511456637      -40.9199405915  TIP3      5180            0.0000000000
     24115      5244  TIP3      H1             -2.0192790038       -8.6530720801      -40.9053586334  TIP3      5180            0.0000000000
     24116      5244  TIP3      H2             -2.1089291275       -7.4284613004      -40.0501162670  TIP3      5180            0.0000000000
     24117      5245  TIP3      OH2             3.6356604572       -9.1747204405      -53.6055938496  TIP3      5181            0.0000000000
     24118      5245  TIP3      H1              3.6968455693       -9.9233879678      -54.2236052863  TIP3      5181            0.0000000000
     24119      5245  TIP3      H2              3.1355973365       -9.6037212146      -52.8770290511  TIP3      5181            0.0000000000
     24120      5246  TIP3      OH2             2.3526100088       -9.6641617919      -51.1536488601  TIP3      5182            0.0000000000
     24121      5246  TIP3      H1              2.6928957956      -10.1807397148      -50.4123277155  TIP3      5182            0.0000000000
     24122      5246  TIP3      H2              2.4806509603       -8.7415604758      -50.8321455296  TIP3      5182            0.0000000000
     24123      5247  TIP3      OH2            -1.0571033589      -12.4172480084      -50.6770001543  TIP3      5183            0.0000000000
     24124      5247  TIP3      H1             -1.7911623043      -12.0102662996      -50.1715633796  TIP3      5183            0.0000000000
     24125      5247  TIP3      H2             -0.5704315474      -11.6404030894      -51.0057041159  TIP3      5183            0.0000000000
     24126      5248  TIP3      OH2             6.8013985113      -19.7292498986      -40.3413051716  TIP3      5184            0.0000000000
     24127      5248  TIP3      H1              7.5064413550      -19.6888417289      -39.6877788086  TIP3      5184            0.0000000000
     24128      5248  TIP3      H2              6.4160154287      -20.6112910229      -40.1315654252  TIP3      5184            0.0000000000
     24129      5249  TIP3      OH2             7.6458455004      -20.2543438079      -49.2689714409  TIP3      5185            0.0000000000
     24130      5249  TIP3      H1              7.7092529575      -19.7183404529      -50.0876322141  TIP3      5185            0.0000000000
     24131      5249  TIP3      H2              8.0428235133      -19.6515653865      -48.6135036785  TIP3      5185            0.0000000000
     24132      5250  TIP3      OH2             5.1845968535       -8.0091788166      -50.4940970870  TIP3      5186            0.0000000000
     24133      5250  TIP3      H1              4.3643736282       -7.4804500746      -50.4019813544  TIP3      5186            0.0000000000
     24134      5250  TIP3      H2              5.7325167240       -7.4317029277      -51.0440782971  TIP3      5186            0.0000000000
     24135      5251  TIP3      OH2             4.7432743160      -18.4410096000      -48.4536293361  TIP3      5187            0.0000000000
     24136      5251  TIP3      H1              5.4947562295      -17.8219241926      -48.3912313177  TIP3      5187            0.0000000000
     24137      5251  TIP3      H2              4.4454406122      -18.5599666619      -47.5275243449  TIP3      5187            0.0000000000
     24138      5252  TIP3      OH2             5.3224451237      -17.3486546119      -39.2785112107  TIP3      5188            0.0000000000
     24139      5252  TIP3      H1              5.3663320008      -16.8362509863      -38.4466741943  TIP3      5188            0.0000000000
     24140      5252  TIP3      H2              5.9322356394      -18.0922763142      -39.1685674330  TIP3      5188            0.0000000000
     24141      5253  TIP3      OH2             5.5588944001      -21.3345201612      -47.5271100870  TIP3      5189            0.0000000000
     24142      5253  TIP3      H1              5.2179811249      -20.6624554580      -46.9167770788  TIP3      5189            0.0000000000
     24143      5253  TIP3      H2              6.2265015410      -20.8234285783      -48.0298733011  TIP3      5189            0.0000000000
     24144      5254  TIP3      OH2             2.6201763034       -6.9874380522      -50.4396411799  TIP3      5190            0.0000000000
     24145      5254  TIP3      H1              2.6824790786       -6.1800345849      -51.0055207965  TIP3      5190            0.0000000000
     24146      5254  TIP3      H2              2.3108750344       -6.6102834889      -49.5843663683  TIP3      5190            0.0000000000
     24147      5255  TIP3      OH2             1.1798971697      -20.2090789094      -50.9155034027  TIP3      5191            0.0000000000
     24148      5255  TIP3      H1              1.1682274971      -19.3491941126      -50.4620709078  TIP3      5191            0.0000000000
     24149      5255  TIP3      H2              2.0697761440      -20.5142529592      -50.6338446332  TIP3      5191            0.0000000000
     24150      5256  TIP3      OH2            11.4542825904      -19.5139760657      -38.4418238172  TIP3      5192            0.0000000000
     24151      5256  TIP3      H1             10.5205651162      -19.2193733787      -38.5682735003  TIP3      5192            0.0000000000
     24152      5256  TIP3      H2             11.7376084605      -19.5821842198      -39.3695797909  TIP3      5192            0.0000000000
     24153      5257  TIP3      OH2            10.0765757241      -15.7286723497      -44.4438145258  TIP3      5193            0.0000000000
     24154      5257  TIP3      H1              9.2556022927      -16.1922063830      -44.6894030826  TIP3      5193            0.0000000000
     24155      5257  TIP3      H2             10.5792727438      -16.4018961593      -43.9289604467  TIP3      5193            0.0000000000
     24156      5258  TIP3      OH2            -0.5462960355       -9.8086884765      -51.8528629605  TIP3      5194            0.0000000000
     24157      5258  TIP3      H1              0.1474142739       -9.2277730000      -51.5022710556  TIP3      5194            0.0000000000
     24158      5258  TIP3      H2             -0.0212767246      -10.2968731653      -52.5180265531  TIP3      5194            0.0000000000
     24159      5259  TIP3      OH2            -2.2055965530      -17.1435998692      -52.6967266819  TIP3      5195            0.0000000000
     24160      5259  TIP3      H1             -2.1464340098      -16.1949482103      -52.4537152977  TIP3      5195            0.0000000000
     24161      5259  TIP3      H2             -3.1049745085      -17.2539372163      -53.0146826517  TIP3      5195            0.0000000000
     24162      5260  TIP3      OH2            11.1418573151       -6.4450330578      -42.7729883713  TIP3      5196            0.0000000000
     24163      5260  TIP3      H1             11.0722512846       -5.7690747169      -43.4793265790  TIP3      5196            0.0000000000
     24164      5260  TIP3      H2             12.1050054604       -6.4171104065      -42.5896671294  TIP3      5196            0.0000000000
     24165      5261  TIP3      OH2            -1.3761498218      -22.2549872086      -44.0354045951  TIP3      5197            0.0000000000
     24166      5261  TIP3      H1             -1.6114766962      -22.3421422734      -44.9819731200  TIP3      5197            0.0000000000
     24167      5261  TIP3      H2             -1.7110069846      -23.1093887158      -43.6847314348  TIP3      5197            0.0000000000
     24168      5262  TIP3      OH2            -2.4358249021       -8.4181509542      -47.7649040108  TIP3      5198            0.0000000000
     24169      5262  TIP3      H1             -3.2964626740       -7.9870492943      -47.8478377490  TIP3      5198            0.0000000000
     24170      5262  TIP3      H2             -1.9789907253       -8.0012738545      -48.5093231680  TIP3      5198            0.0000000000
     24171      5263  TIP3      OH2            -3.2513630642       -5.7754060887      -36.5228077482  TIP3      5199            0.0000000000
     24172      5263  TIP3      H1             -2.6248852950       -5.9458026429      -35.7914776873  TIP3      5199            0.0000000000
     24173      5263  TIP3      H2             -3.6093933580       -6.6636644624      -36.6911592659  TIP3      5199            0.0000000000
     24174      5264  TIP3      OH2             1.4811815214       -6.8541716711      -34.9222714010  TIP3      5200            0.0000000000
     24175      5264  TIP3      H1              2.2307419948       -7.3608116280      -34.5778086322  TIP3      5200            0.0000000000
     24176      5264  TIP3      H2              1.4462155898       -7.1487202560      -35.8544575269  TIP3      5200            0.0000000000
     24177      5265  TIP3      OH2             5.6335072024       -7.3297092314      -53.4899455333  TIP3      5201            0.0000000000
     24178      5265  TIP3      H1              4.9222881148       -7.9896026010      -53.3166199116  TIP3      5201            0.0000000000
     24179      5265  TIP3      H2              6.3369547809       -7.9391299929      -53.7591406960  TIP3      5201            0.0000000000
     24180      5266  TIP3      OH2             7.9370070039       -8.4601371114      -36.1355300534  TIP3      5202            0.0000000000
     24181      5266  TIP3      H1              7.6286922294       -9.3489144512      -35.8551109605  TIP3      5202            0.0000000000
     24182      5266  TIP3      H2              8.7248732840       -8.3436025619      -35.5685523224  TIP3      5202            0.0000000000
     24183      5267  TIP3      OH2            10.1724060421       -7.6148990240      -53.3220979202  TIP3      5203            0.0000000000
     24184      5267  TIP3      H1             10.4587043259       -8.3843485625      -52.8031127136  TIP3      5203            0.0000000000
     24185      5267  TIP3      H2             10.9389534813       -7.4217611370      -53.8802169623  TIP3      5203            0.0000000000
     24186      5268  TIP3      OH2            -3.3444773308      -12.0213959735      -35.5077121466  TIP3      5204            0.0000000000
     24187      5268  TIP3      H1             -3.1844323912      -12.9462190855      -35.7711670186  TIP3      5204            0.0000000000
     24188      5268  TIP3      H2             -4.0579701484      -11.7629774713      -36.1140994822  TIP3      5204            0.0000000000
     24189      5269  TIP3      OH2             1.0461441984      -11.6557100346      -53.5365375245  TIP3      5205            0.0000000000
     24190      5269  TIP3      H1              1.1800461093      -12.4012847549      -52.9321028685  TIP3      5205            0.0000000000
     24191      5269  TIP3      H2              1.8150040003      -11.7760708371      -54.1273541404  TIP3      5205            0.0000000000
     24192      5270  TIP3      OH2             3.3991492521      -12.0111516203      -36.1387235159  TIP3      5206            0.0000000000
     24193      5270  TIP3      H1              3.0740635352      -11.6729163832      -36.9972166303  TIP3      5206            0.0000000000
     24194      5270  TIP3      H2              3.4470539709      -12.9891517866      -36.2630087530  TIP3      5206            0.0000000000
     24195      5271  TIP3      OH2             6.4929964239      -10.5354493822      -53.7259537434  TIP3      5207            0.0000000000
     24196      5271  TIP3      H1              6.2192399452      -10.4836175084      -52.7961233005  TIP3      5207            0.0000000000
     24197      5271  TIP3      H2              6.3156631261      -11.4912001363      -53.8960625366  TIP3      5207            0.0000000000
     24198      5272  TIP3      OH2             9.0842473470      -12.1734238293      -38.7306282721  TIP3      5208            0.0000000000
     24199      5272  TIP3      H1              9.8926980361      -11.6141539898      -38.7623386625  TIP3      5208            0.0000000000
     24200      5272  TIP3      H2              8.4093406414      -11.4769579965      -38.7134300834  TIP3      5208            0.0000000000
     24201      5273  TIP3      OH2            -2.3763378245      -14.8017053676      -36.1168635144  TIP3      5209            0.0000000000
     24202      5273  TIP3      H1             -1.9322685262      -15.6514007013      -36.1873235502  TIP3      5209            0.0000000000
     24203      5273  TIP3      H2             -2.5876421510      -14.7724352383      -35.1692981647  TIP3      5209            0.0000000000
     24204      5274  TIP3      OH2             2.2494267395      -13.6280982226      -51.0302299257  TIP3      5210            0.0000000000
     24205      5274  TIP3      H1              1.7155473832      -14.1872216015      -50.4465734330  TIP3      5210            0.0000000000
     24206      5274  TIP3      H2              2.5660495499      -14.2803489496      -51.6973909757  TIP3      5210            0.0000000000
     24207      5275  TIP3      OH2             1.5041448147      -15.8667562550      -38.8058836194  TIP3      5211            0.0000000000
     24208      5275  TIP3      H1              0.9204456636      -15.1337554756      -38.5502142116  TIP3      5211            0.0000000000
     24209      5275  TIP3      H2              1.9346887368      -15.4795410074      -39.5885793588  TIP3      5211            0.0000000000
     24210      5276  TIP3      OH2             3.3333821221      -15.4014395437      -52.8793133487  TIP3      5212            0.0000000000
     24211      5276  TIP3      H1              3.1940652431      -15.4689352522      -53.8463438075  TIP3      5212            0.0000000000
     24212      5276  TIP3      H2              4.3092062591      -15.3845989489      -52.7957719461  TIP3      5212            0.0000000000
     24213      5277  TIP3      OH2             6.6076489390      -13.2470772110      -35.4240244456  TIP3      5213            0.0000000000
     24214      5277  TIP3      H1              7.5526416380      -13.3076182001      -35.6087183586  TIP3      5213            0.0000000000
     24215      5277  TIP3      H2              6.4273151419      -14.0316528016      -34.8797355972  TIP3      5213            0.0000000000
     24216      5278  TIP3      OH2            12.6162821471      -13.1056650786      -53.4762417868  TIP3      5214            0.0000000000
     24217      5278  TIP3      H1             12.4743379541      -13.4636417846      -54.3706425695  TIP3      5214            0.0000000000
     24218      5278  TIP3      H2             12.7318779273      -12.1400818135      -53.6488651637  TIP3      5214            0.0000000000
     24219      5279  TIP3      OH2             1.9475155858      -18.4796355020      -37.7543164894  TIP3      5215            0.0000000000
     24220      5279  TIP3      H1              2.0905697240      -19.1436969578      -38.4535623929  TIP3      5215            0.0000000000
     24221      5279  TIP3      H2              1.8585136750      -17.6556277972      -38.2766956373  TIP3      5215            0.0000000000
     24222      5280  TIP3      OH2             2.3106727701      -19.8367380607      -40.1790574974  TIP3      5216            0.0000000000
     24223      5280  TIP3      H1              2.8334245056      -19.5362384014      -40.9558636505  TIP3      5216            0.0000000000
     24224      5280  TIP3      H2              1.4342020956      -20.0514507506      -40.5676071112  TIP3      5216            0.0000000000
     24225      5281  TIP3      OH2             3.8596391694      -14.5460904532      -39.9278295076  TIP3      5217            0.0000000000
     24226      5281  TIP3      H1              4.6187008707      -14.7283774054      -40.4940973836  TIP3      5217            0.0000000000
     24227      5281  TIP3      H2              3.4827393262      -13.7298008400      -40.2991928567  TIP3      5217            0.0000000000
     24228      5282  TIP3      OH2             8.2462227930      -16.8554830025      -34.9998390268  TIP3      5218            0.0000000000
     24229      5282  TIP3      H1              8.4990234033      -17.7884697088      -35.0724938099  TIP3      5218            0.0000000000
     24230      5282  TIP3      H2              9.1032760465      -16.3998074337      -34.9396677293  TIP3      5218            0.0000000000
     24231      5283  TIP3      OH2             9.6266277487      -14.0166482621      -36.7558126744  TIP3      5219            0.0000000000
     24232      5283  TIP3      H1              9.3518832316      -13.3280610130      -37.4004007490  TIP3      5219            0.0000000000
     24233      5283  TIP3      H2             10.5764563186      -14.0590265183      -36.9645982457  TIP3      5219            0.0000000000
     24234      5284  TIP3      OH2             0.4029605894      -17.2257649919      -35.8229741871  TIP3      5220            0.0000000000
     24235      5284  TIP3      H1             -0.3885254650      -17.7900609962      -35.9452793002  TIP3      5220            0.0000000000
     24236      5284  TIP3      H2              1.0342885929      -17.6142398542      -36.4593032253  TIP3      5220            0.0000000000
     24237      5285  TIP3      OH2             2.2371160117      -22.3380176168      -39.6979167736  TIP3      5221            0.0000000000
     24238      5285  TIP3      H1              2.7286644615      -21.4942150187      -39.8800796029  TIP3      5221            0.0000000000
     24239      5285  TIP3      H2              2.3394147337      -22.8784734259      -40.4807391470  TIP3      5221            0.0000000000
     24240      5286  TIP3      OH2             4.3930815692      -18.3023113904      -36.1416758899  TIP3      5222            0.0000000000
     24241      5286  TIP3      H1              4.0601283475      -18.5706843881      -35.2647240395  TIP3      5222            0.0000000000
     24242      5286  TIP3      H2              3.6203892685      -18.4997284138      -36.6970154771  TIP3      5222            0.0000000000
     24243      5287  TIP3      OH2             7.0868188523      -19.2048399091      -37.0372105649  TIP3      5223            0.0000000000
     24244      5287  TIP3      H1              6.1277295680      -19.1080530482      -36.9194601020  TIP3      5223            0.0000000000
     24245      5287  TIP3      H2              7.3371319131      -19.8068272344      -36.3111934715  TIP3      5223            0.0000000000
     24246      5288  TIP3      OH2             8.7267667825      -20.4510197249      -35.1553582403  TIP3      5224            0.0000000000
     24247      5288  TIP3      H1              8.6486789530      -21.4276946725      -35.1854677742  TIP3      5224            0.0000000000
     24248      5288  TIP3      H2              8.4454419847      -20.2162996292      -34.2493349220  TIP3      5224            0.0000000000
     24249      5289  TIP3      OH2            -1.5215845788      -19.2957724487      -36.0524955591  TIP3      5225            0.0000000000
     24250      5289  TIP3      H1             -1.2978847622      -20.0504972395      -36.6285745134  TIP3      5225            0.0000000000
     24251      5289  TIP3      H2             -1.6349659353      -19.7157402830      -35.1793776186  TIP3      5225            0.0000000000
     24252      5290  TIP3      OH2             3.6404638140       24.1924541006      -37.5495452436  TIP3      5226            0.0000000000
     24253      5290  TIP3      H1              4.1620939065       23.4046760523      -37.3697077291  TIP3      5226            0.0000000000
     24254      5290  TIP3      H2              3.1244592947       23.9527765700      -38.3457890819  TIP3      5226            0.0000000000
     24255      5291  TIP3      OH2             3.7410069808      -21.5663036591      -34.9914694223  TIP3      5227            0.0000000000
     24256      5291  TIP3      H1              3.5561963396      -22.0340249939      -35.8269277154  TIP3      5227            0.0000000000
     24257      5291  TIP3      H2              3.1228060100      -20.8177906663      -35.0376134799  TIP3      5227            0.0000000000
     24258      5292  TIP3      OH2             3.1462707202       -4.7016810107      -51.7726487540  TIP3      5228            0.0000000000
     24259      5292  TIP3      H1              4.1157931087       -4.6571420082      -51.7115946059  TIP3      5228            0.0000000000
     24260      5292  TIP3      H2              3.0270915742       -4.1400442226      -52.5503976290  TIP3      5228            0.0000000000
     24261      5293  TIP3      OH2            -3.3197772053      -10.1625289764      -52.3084226489  TIP3      5229            0.0000000000
     24262      5293  TIP3      H1             -2.3526371358      -10.0643476895      -52.1486146420  TIP3      5229            0.0000000000
     24263      5293  TIP3      H2             -3.2866013401      -10.7854860701      -53.0745644622  TIP3      5229            0.0000000000
     24264      5294  TIP3      OH2            -4.4249535785       -4.8463263656      -47.4398969607  TIP3      5230            0.0000000000
     24265      5294  TIP3      H1             -5.2378000578       -5.2670956048      -47.8040360363  TIP3      5230            0.0000000000
     24266      5294  TIP3      H2             -4.2471574894       -5.4106421496      -46.6656640218  TIP3      5230            0.0000000000
     24267      5295  TIP3      OH2            -3.6873209150       -6.6172564853      -45.4559429024  TIP3      5231            0.0000000000
     24268      5295  TIP3      H1             -4.0497804653       -7.4892122771      -45.2479660528  TIP3      5231            0.0000000000
     24269      5295  TIP3      H2             -3.4444266616       -6.2885406801      -44.5744616074  TIP3      5231            0.0000000000
     24270      5296  TIP3      OH2            13.8692887271       -5.8234192463      -42.5653615761  TIP3      5232            0.0000000000
     24271      5296  TIP3      H1             13.9055216356       -5.6869638081      -41.6034365634  TIP3      5232            0.0000000000
     24272      5296  TIP3      H2             14.5727526730       -5.2354711138      -42.8551266378  TIP3      5232            0.0000000000
     24273      5297  TIP3      OH2            13.4232883802       -6.2313919851      -39.6159032117  TIP3      5233            0.0000000000
     24274      5297  TIP3      H1             12.9566076294       -6.9998079882      -40.0075309577  TIP3      5233            0.0000000000
     24275      5297  TIP3      H2             13.8717640037       -6.6807090425      -38.8817873122  TIP3      5233            0.0000000000
     24276      5298  TIP3      OH2            11.8717727789      -10.5248179242      -34.9190543659  TIP3      5234            0.0000000000
     24277      5298  TIP3      H1             10.9596181713      -10.5297122434      -34.5718387216  TIP3      5234            0.0000000000
     24278      5298  TIP3      H2             12.2365870310       -9.7051024944      -34.5374152225  TIP3      5234            0.0000000000
     24279      5299  TIP3      OH2            13.1915938234      -12.1680619774      -49.5324669054  TIP3      5235            0.0000000000
     24280      5299  TIP3      H1             14.0594715493      -11.7753995920      -49.3320989883  TIP3      5235            0.0000000000
     24281      5299  TIP3      H2             13.1581012100      -12.8683873835      -48.8494461537  TIP3      5235            0.0000000000
     24282      5300  TIP3      OH2            13.5311866360      -14.0806978647      -47.6191317787  TIP3      5236            0.0000000000
     24283      5300  TIP3      H1             12.7717775225      -14.5735608366      -47.2320329598  TIP3      5236            0.0000000000
     24284      5300  TIP3      H2             14.1325506313      -13.9856989558      -46.8504398849  TIP3      5236            0.0000000000
     24285      5301  TIP3      OH2            13.3025001787      -11.4238724198      -42.6284423025  TIP3      5237            0.0000000000
     24286      5301  TIP3      H1             14.0967830960      -11.8181901450      -43.0284240609  TIP3      5237            0.0000000000
     24287      5301  TIP3      H2             13.4555763292      -10.4711764046      -42.8011667895  TIP3      5237            0.0000000000
     24288      5302  TIP3      OH2            11.8659090470       -8.5054406455      -40.3686674559  TIP3      5238            0.0000000000
     24289      5302  TIP3      H1             11.1749391499       -8.1522691597      -39.7877109417  TIP3      5238            0.0000000000
     24290      5302  TIP3      H2             11.3247150595       -8.8942881313      -41.0896747467  TIP3      5238            0.0000000000
     24291      5303  TIP3      OH2            13.8492052318      -14.2822189723      -51.2304860503  TIP3      5239            0.0000000000
     24292      5303  TIP3      H1             13.2659189218      -13.9720611504      -51.9525423309  TIP3      5239            0.0000000000
     24293      5303  TIP3      H2             13.7210052918      -13.5645300447      -50.5804605081  TIP3      5239            0.0000000000
     24294      5304  TIP3      OH2            12.2410966107      -17.0666545261      -52.7458893766  TIP3      5240            0.0000000000
     24295      5304  TIP3      H1             12.3071204902      -16.4048922089      -53.4409432389  TIP3      5240            0.0000000000
     24296      5304  TIP3      H2             12.0245279040      -17.8865757968      -53.2390361121  TIP3      5240            0.0000000000
     24297      5305  TIP3      OH2            11.3686890555      -15.6302519428      -47.0281228502  TIP3      5241            0.0000000000
     24298      5305  TIP3      H1             11.2284141628      -16.5838688934      -47.1008514569  TIP3      5241            0.0000000000
     24299      5305  TIP3      H2             11.0672748103      -15.4532530506      -46.1145177229  TIP3      5241            0.0000000000
     24300      5306  TIP3      OH2            -3.6191316290      -13.5337101099      -42.9690129611  TIP3      5242            0.0000000000
     24301      5306  TIP3      H1             -3.4624312965      -13.6263353791      -43.9361633056  TIP3      5242            0.0000000000
     24302      5306  TIP3      H2             -2.7237010585      -13.7428501406      -42.6325168018  TIP3      5242            0.0000000000
     24303      5307  TIP3      OH2            12.2538915747      -13.6719828416      -37.3303483913  TIP3      5243            0.0000000000
     24304      5307  TIP3      H1             12.8600855277      -14.4341868982      -37.2232582937  TIP3      5243            0.0000000000
     24305      5307  TIP3      H2             12.8592294253      -12.8998462570      -37.3472594645  TIP3      5243            0.0000000000
     24306      5308  TIP3      OH2            13.7447390045      -15.8179796517      -36.7012869016  TIP3      5244            0.0000000000
     24307      5308  TIP3      H1             12.8507286247      -16.1978315881      -36.8419006292  TIP3      5244            0.0000000000
     24308      5308  TIP3      H2             14.3065636334      -16.6160832131      -36.7637998280  TIP3      5244            0.0000000000
     24309      5309  TIP3      OH2            11.5058795176      -19.5493749152      -53.5778243606  TIP3      5245            0.0000000000
     24310      5309  TIP3      H1             12.0792798050      -20.0170361948      -52.9475101085  TIP3      5245            0.0000000000
     24311      5309  TIP3      H2             10.6377414148      -19.9710468224      -53.4481263286  TIP3      5245            0.0000000000
     24312      5310  TIP3      OH2            11.0012428806      -18.0385302412      -48.6592477103  TIP3      5246            0.0000000000
     24313      5310  TIP3      H1             11.3199413849      -18.9465383979      -48.4640623531  TIP3      5246            0.0000000000
     24314      5310  TIP3      H2             11.8331773913      -17.6296003632      -48.9350778573  TIP3      5246            0.0000000000
     24315      5311  TIP3      OH2            11.6719879364      -17.4871775584      -43.1483007595  TIP3      5247            0.0000000000
     24316      5311  TIP3      H1             12.6405770613      -17.3018575587      -43.1580921111  TIP3      5247            0.0000000000
     24317      5311  TIP3      H2             11.4980783190      -17.3849798285      -42.2005273126  TIP3      5247            0.0000000000
     24318      5312  TIP3      OH2            11.7345151776      -16.7795295237      -40.3691227084  TIP3      5248            0.0000000000
     24319      5312  TIP3      H1             10.8508164201      -16.4951944266      -40.0580431615  TIP3      5248            0.0000000000
     24320      5312  TIP3      H2             12.1758289786      -15.9250673933      -40.5906251685  TIP3      5248            0.0000000000
     24321      5313  TIP3      OH2            -3.9694930906      -18.2502582246      -36.7741924468  TIP3      5249            0.0000000000
     24322      5313  TIP3      H1             -3.0380581641      -18.5255497926      -36.6308786475  TIP3      5249            0.0000000000
     24323      5313  TIP3      H2             -4.4501992883      -19.0897127085      -36.6245512268  TIP3      5249            0.0000000000
     24324      5314  TIP3      OH2            14.1094324692      -22.6729046289      -34.9178338554  TIP3      5250            0.0000000000
     24325      5314  TIP3      H1             14.2480918867      -23.4012469950      -35.5667522336  TIP3      5250            0.0000000000
     24326      5314  TIP3      H2             14.0592912424      -21.9261594349      -35.5471357614  TIP3      5250            0.0000000000
     24327      5315  TIP3      OH2            11.7257697919      -20.7773874405      -48.5693656954  TIP3      5251            0.0000000000
     24328      5315  TIP3      H1             11.9425100772      -21.1903167895      -47.7015833927  TIP3      5251            0.0000000000
     24329      5315  TIP3      H2             11.0980238259      -21.4274076783      -48.9460356682  TIP3      5251            0.0000000000
     24330      5316  TIP3      OH2            -2.8075317580      -19.9271429294      -43.9680267488  TIP3      5252            0.0000000000
     24331      5316  TIP3      H1             -2.3544708803      -20.7523504553      -43.7100456189  TIP3      5252            0.0000000000
     24332      5316  TIP3      H2             -2.2138570920      -19.2390526819      -43.6319583523  TIP3      5252            0.0000000000
     24333      5317  TIP3      OH2            -4.5281315812      -16.9347122608      -42.9520107115  TIP3      5253            0.0000000000
     24334      5317  TIP3      H1             -3.9581354429      -17.2140328061      -43.6970759634  TIP3      5253            0.0000000000
     24335      5317  TIP3      H2             -4.0294113590      -16.1495042440      -42.6812726828  TIP3      5253            0.0000000000
     24336      5318  TIP3      OH2            13.5323467457      -20.6632090729      -36.7084265138  TIP3      5254            0.0000000000
     24337      5318  TIP3      H1             12.5983334793      -20.3925414966      -36.7387939131  TIP3      5254            0.0000000000
     24338      5318  TIP3      H2             13.5234774882      -21.2549514925      -37.4778778004  TIP3      5254            0.0000000000
     24339      5319  TIP3      OH2            13.5674965372      -20.7439937777      -51.8867986768  TIP3      5255            0.0000000000
     24340      5319  TIP3      H1             13.8826379293      -21.4052844729      -52.5510444171  TIP3      5255            0.0000000000
     24341      5319  TIP3      H2             14.2213165618      -20.0329993777      -51.9668212510  TIP3      5255            0.0000000000
     24342      5320  TIP3      OH2            -4.1896143793      -20.5477188292      -48.7625143068  TIP3      5256            0.0000000000
     24343      5320  TIP3      H1             -5.1217620809      -20.5316995087      -49.0309060418  TIP3      5256            0.0000000000
     24344      5320  TIP3      H2             -3.7404461519      -20.1836157844      -49.5513716023  TIP3      5256            0.0000000000
     24345      5321  TIP3      OH2            10.5634823443       -5.7348478174      -46.9140860688  TIP3      5257            0.0000000000
     24346      5321  TIP3      H1             11.2545481618       -6.0255469515      -47.5356384206  TIP3      5257            0.0000000000
     24347      5321  TIP3      H2             11.0680762895       -5.2360781517      -46.2517004897  TIP3      5257            0.0000000000
     24348      5322  TIP3      OH2            -4.1230178683      -21.8774173015      -40.5043964201  TIP3      5258            0.0000000000
     24349      5322  TIP3      H1             -4.7807482796      -22.1872558621      -39.8704400583  TIP3      5258            0.0000000000
     24350      5322  TIP3      H2             -4.6114469237      -21.2843748558      -41.1084285813  TIP3      5258            0.0000000000
     24351      5323  TIP3      OH2            -1.9472318071       -8.8661804494      -36.4305947627  TIP3      5259            0.0000000000
     24352      5323  TIP3      H1             -2.7838791569       -8.6211687661      -36.8618202949  TIP3      5259            0.0000000000
     24353      5323  TIP3      H2             -2.2134619068       -8.9434874425      -35.5117507033  TIP3      5259            0.0000000000
     24354      5324  TIP3      OH2             0.9267270708       -7.8250812235      -40.1356186578  TIP3      5260            0.0000000000
     24355      5324  TIP3      H1              0.6484401260       -6.9282112451      -40.3854593258  TIP3      5260            0.0000000000
     24356      5324  TIP3      H2              1.8590764378       -7.7646714081      -40.4276366084  TIP3      5260            0.0000000000
     24357      5325  TIP3      OH2             5.2429103156       -6.4086609093      -37.2541250626  TIP3      5261            0.0000000000
     24358      5325  TIP3      H1              5.3569787934       -6.7644520025      -36.3448106741  TIP3      5261            0.0000000000
     24359      5325  TIP3      H2              6.1554204292       -6.1042142423      -37.4650154400  TIP3      5261            0.0000000000
     24360      5326  TIP3      OH2             7.5318630862       -5.1398439235      -37.9186327334  TIP3      5262            0.0000000000
     24361      5326  TIP3      H1              8.2801469976       -5.6994351047      -38.1615819778  TIP3      5262            0.0000000000
     24362      5326  TIP3      H2              7.8939111713       -4.6837816836      -37.1284735888  TIP3      5262            0.0000000000
     24363      5327  TIP3      OH2            12.4842334713      -22.5415226132      -38.7887307337  TIP3      5263            0.0000000000
     24364      5327  TIP3      H1             11.6961700540      -22.1660174386      -39.2079902242  TIP3      5263            0.0000000000
     24365      5327  TIP3      H2             12.6657406763      -23.3499756075      -39.2876313286  TIP3      5263            0.0000000000
     24366      5328  TIP3      OH2            -1.6499237885       -4.6036095892      -40.1741731083  TIP3      5264            0.0000000000
     24367      5328  TIP3      H1             -2.3786481369       -4.0832978465      -40.5476051606  TIP3      5264            0.0000000000
     24368      5328  TIP3      H2             -1.9304576909       -4.7549657870      -39.2611906915  TIP3      5264            0.0000000000
     24369      5329  TIP3      OH2             0.8150896654       -5.0292981542      -41.0899246299  TIP3      5265            0.0000000000
     24370      5329  TIP3      H1             -0.0724737170       -4.8476637857      -40.6975539251  TIP3      5265            0.0000000000
     24371      5329  TIP3      H2              0.7798186297       -4.4243169687      -41.8506882490  TIP3      5265            0.0000000000
     24372      5330  TIP3      OH2             5.5338962247       -5.1188728936      -41.9228973812  TIP3      5266            0.0000000000
     24373      5330  TIP3      H1              5.0637237212       -4.5560840931      -42.5563636982  TIP3      5266            0.0000000000
     24374      5330  TIP3      H2              5.6612618194       -4.4940285485      -41.1708702750  TIP3      5266            0.0000000000
     24375      5331  TIP3      OH2             7.7803283320       -6.3509867178      -40.8207435765  TIP3      5267            0.0000000000
     24376      5331  TIP3      H1              6.9682335842       -6.0280610558      -41.2539001897  TIP3      5267            0.0000000000
     24377      5331  TIP3      H2              8.3227856760       -5.5512323132      -40.9219374165  TIP3      5267            0.0000000000
     24378      5332  TIP3      OH2            10.3790716102       -4.7671220707      -40.6739486287  TIP3      5268            0.0000000000
     24379      5332  TIP3      H1             10.3815684142       -3.8044243217      -40.8926494275  TIP3      5268            0.0000000000
     24380      5332  TIP3      H2             10.6106840784       -5.1452261474      -41.5483011856  TIP3      5268            0.0000000000
     24381      5333  TIP3      OH2            -2.1492800426       -5.9540436018      -43.2068891569  TIP3      5269            0.0000000000
     24382      5333  TIP3      H1             -2.2601293263       -6.4293090114      -42.3562962060  TIP3      5269            0.0000000000
     24383      5333  TIP3      H2             -1.3409284483       -6.3521632400      -43.5876287306  TIP3      5269            0.0000000000
     24384      5334  TIP3      OH2            -0.0951230921       -7.2417223184      -44.5539391357  TIP3      5270            0.0000000000
     24385      5334  TIP3      H1             -0.2457882776       -8.1712354376      -44.2965229098  TIP3      5270            0.0000000000
     24386      5334  TIP3      H2              0.7606673988       -7.0655260049      -44.1134654543  TIP3      5270            0.0000000000
     24387      5335  TIP3      OH2             2.5150640601       -6.7556157387      -43.6690986456  TIP3      5271            0.0000000000
     24388      5335  TIP3      H1              2.6495627030       -7.6856718888      -43.9186534029  TIP3      5271            0.0000000000
     24389      5335  TIP3      H2              2.5527093149       -6.8035003004      -42.7000664427  TIP3      5271            0.0000000000
     24390      5336  TIP3      OH2             5.8742021460      -20.9954202090      -44.5124497921  TIP3      5272            0.0000000000
     24391      5336  TIP3      H1              5.2857201982      -21.7177781618      -44.2114507256  TIP3      5272            0.0000000000
     24392      5336  TIP3      H2              6.5095353226      -21.5226100592      -45.0202012252  TIP3      5272            0.0000000000
     24393      5337  TIP3      OH2            11.2259083265      -22.4801956819      -44.2694689012  TIP3      5273            0.0000000000
     24394      5337  TIP3      H1             11.7732323279      -22.3758510921      -45.0775079968  TIP3      5273            0.0000000000
     24395      5337  TIP3      H2             10.3471434011      -22.7431358510      -44.6004178840  TIP3      5273            0.0000000000
     24396      5338  TIP3      OH2            12.7842969447      -21.7755915274      -46.3094523252  TIP3      5274            0.0000000000
     24397      5338  TIP3      H1             13.4362500442      -22.4115206374      -46.6196179432  TIP3      5274            0.0000000000
     24398      5338  TIP3      H2             13.3163900599      -20.9636338388      -46.1296676547  TIP3      5274            0.0000000000
     24399      5339  TIP3      OH2            -1.7262115214      -22.5494449558      -46.6639073300  TIP3      5275            0.0000000000
     24400      5339  TIP3      H1             -2.4575220310      -22.6828192579      -47.2788909977  TIP3      5275            0.0000000000
     24401      5339  TIP3      H2             -1.2159064335      -23.3585786902      -46.7558967244  TIP3      5275            0.0000000000
     24402      5340  TIP3      OH2            -2.8095490917      -22.3028319175      -50.3668073209  TIP3      5276            0.0000000000
     24403      5340  TIP3      H1             -2.5496947042      -21.8757664782      -51.1975212609  TIP3      5276            0.0000000000
     24404      5340  TIP3      H2             -3.7217649008      -22.0001875031      -50.2717031853  TIP3      5276            0.0000000000
     24405      5341  TIP3      OH2             2.7795934863      -22.3824423471      -46.9618643189  TIP3      5277            0.0000000000
     24406      5341  TIP3      H1              3.7186024069      -22.1471846622      -46.9751408347  TIP3      5277            0.0000000000
     24407      5341  TIP3      H2              2.7293108698      -22.9346911635      -46.1634828522  TIP3      5277            0.0000000000
     24408      5342  TIP3      OH2             8.3735051614      -22.5105626765      -45.3365999741  TIP3      5278            0.0000000000
     24409      5342  TIP3      H1              8.5238816902      -22.4286809298      -46.2787762926  TIP3      5278            0.0000000000
     24410      5342  TIP3      H2              8.2305288817      -23.4553180574      -45.2034183616  TIP3      5278            0.0000000000
     24411      5343  TIP3      OH2             9.8554450205      -22.3905986811      -49.5421732198  TIP3      5279            0.0000000000
     24412      5343  TIP3      H1              9.0664709002      -21.8233157771      -49.6737843314  TIP3      5279            0.0000000000
     24413      5343  TIP3      H2              9.5425203224      -23.1570365938      -49.0475674687  TIP3      5279            0.0000000000
     24414      5344  TIP3      OH2            -3.0167422383       -6.7924319469      -49.9006528190  TIP3      5280            0.0000000000
     24415      5344  TIP3      H1             -3.6616931317       -6.8180119296      -50.6309785382  TIP3      5280            0.0000000000
     24416      5344  TIP3      H2             -3.0116235182       -5.8338530544      -49.7615691421  TIP3      5280            0.0000000000
     24417      5345  TIP3      OH2            -1.1413848432      -20.8368915226      -52.4354860300  TIP3      5281            0.0000000000
     24418      5345  TIP3      H1             -0.5680775968      -21.3848058973      -52.9953874519  TIP3      5281            0.0000000000
     24419      5345  TIP3      H2             -0.4810296475      -20.4725757261      -51.8144769388  TIP3      5281            0.0000000000
     24420      5346  TIP3      OH2             3.8172788904      -20.5435776370      -50.0138780182  TIP3      5282            0.0000000000
     24421      5346  TIP3      H1              4.2118575279      -21.0889095092      -49.3081903873  TIP3      5282            0.0000000000
     24422      5346  TIP3      H2              3.9908438524      -19.6658938513      -49.6202820126  TIP3      5282            0.0000000000
     24423      5347  TIP3      OH2             5.8814140244       -5.4350408075      -51.6141184151  TIP3      5283            0.0000000000
     24424      5347  TIP3      H1              6.8175009662       -5.2808041142      -51.8286342798  TIP3      5283            0.0000000000
     24425      5347  TIP3      H2              5.6578021986       -5.9958483182      -52.3856170333  TIP3      5283            0.0000000000
     24426      5348  TIP3      OH2            12.5652620102       -6.0181190675      -48.8607443755  TIP3      5284            0.0000000000
     24427      5348  TIP3      H1             12.3650105732       -6.7903584207      -49.4358851202  TIP3      5284            0.0000000000
     24428      5348  TIP3      H2             12.4597572394       -5.2625910277      -49.4881074239  TIP3      5284            0.0000000000
     24429      5349  TIP3      OH2            -1.7324140291      -21.7888335667      -37.3069672170  TIP3      5285            0.0000000000
     24430      5349  TIP3      H1             -2.1986096636      -22.6050411702      -36.9953844264  TIP3      5285            0.0000000000
     24431      5349  TIP3      H2             -0.8930199760      -21.9352178958      -36.8178744687  TIP3      5285            0.0000000000
     24432      5350  TIP3      OH2             0.2760088139      -22.5584882290      -35.6085344349  TIP3      5286            0.0000000000
     24433      5350  TIP3      H1              1.1809832976      -22.8756646864      -35.7459087292  TIP3      5286            0.0000000000
     24434      5350  TIP3      H2             -0.1513406074      -23.3569460190      -35.2546591952  TIP3      5286            0.0000000000
     24435      5351  TIP3      OH2            -1.2253169749       -5.7862258607      -52.9855308457  TIP3      5287            0.0000000000
     24436      5351  TIP3      H1             -1.4880214604       -5.5302764683      -52.0902651333  TIP3      5287            0.0000000000
     24437      5351  TIP3      H2             -0.4454298432       -6.3546752498      -52.8352879001  TIP3      5287            0.0000000000
     24438      5352  TIP3      OH2             8.6995928734       23.5962360921      -35.4761568891  TIP3      5288            0.0000000000
     24439      5352  TIP3      H1              8.5793181633       22.9555820278      -34.7614387237  TIP3      5288            0.0000000000
     24440      5352  TIP3      H2              9.5938571366       23.4538587527      -35.8099329446  TIP3      5288            0.0000000000
     24441      5353  TIP3      OH2            11.8129162801       -7.2089288708      -36.8276430718  TIP3      5289            0.0000000000
     24442      5353  TIP3      H1             11.0170803573       -7.3336601105      -37.3890562227  TIP3      5289            0.0000000000
     24443      5353  TIP3      H2             11.6917777773       -6.2648038325      -36.6047306752  TIP3      5289            0.0000000000
     24444      5354  TIP3      OH2            17.4406097378      -14.4072082248      -41.7835743136  TIP3      5290            0.0000000000
     24445      5354  TIP3      H1             17.5318530811      -15.1075013141      -41.1038292057  TIP3      5290            0.0000000000
     24446      5354  TIP3      H2             18.1845568855      -13.8386052865      -41.5463244571  TIP3      5290            0.0000000000
     24447      5355  TIP3      OH2            18.3854335951       -9.9557121758      -43.3071087694  TIP3      5291            0.0000000000
     24448      5355  TIP3      H1             18.0749055303      -10.8352053769      -43.6013315430  TIP3      5291            0.0000000000
     24449      5355  TIP3      H2             19.3426664533      -10.1443825587      -43.2665422337  TIP3      5291            0.0000000000
     24450      5356  TIP3      OH2            15.0082056428      -16.4148771566      -47.7935486131  TIP3      5292            0.0000000000
     24451      5356  TIP3      H1             14.5639544826      -15.5536363017      -47.8776983498  TIP3      5292            0.0000000000
     24452      5356  TIP3      H2             14.4665761130      -16.9734948773      -48.3664811962  TIP3      5292            0.0000000000
     24453      5357  TIP3      OH2            15.7546536007      -14.1646262400      -45.6040834440  TIP3      5293            0.0000000000
     24454      5357  TIP3      H1             16.0394373202      -15.0102117848      -45.1994921919  TIP3      5293            0.0000000000
     24455      5357  TIP3      H2             16.4053160079      -14.0601189671      -46.3117561443  TIP3      5293            0.0000000000
     24456      5358  TIP3      OH2            19.4974603996      -19.0780226043      -45.3380004148  TIP3      5294            0.0000000000
     24457      5358  TIP3      H1             19.9134120698      -18.3336433929      -45.8277984988  TIP3      5294            0.0000000000
     24458      5358  TIP3      H2             19.3247703767      -19.7240812424      -46.0542083447  TIP3      5294            0.0000000000
     24459      5359  TIP3      OH2            16.4059713543      -16.7164852274      -44.5800786276  TIP3      5295            0.0000000000
     24460      5359  TIP3      H1             17.0865822073      -17.2568760077      -44.1444847494  TIP3      5295            0.0000000000
     24461      5359  TIP3      H2             16.5086701326      -17.0105113613      -45.5039938129  TIP3      5295            0.0000000000
     24462      5360  TIP3      OH2            21.5523095901      -15.1628070773      -45.2575817006  TIP3      5296            0.0000000000
     24463      5360  TIP3      H1             22.2378278962      -15.7427872599      -44.8702990437  TIP3      5296            0.0000000000
     24464      5360  TIP3      H2             21.0006709625      -15.8222516693      -45.7207208328  TIP3      5296            0.0000000000
     24465      5361  TIP3      OH2            18.6062659479      -20.2136915261      -41.3103890414  TIP3      5297            0.0000000000
     24466      5361  TIP3      H1             18.3622204454      -19.5906334666      -42.0404010442  TIP3      5297            0.0000000000
     24467      5361  TIP3      H2             17.9406553006      -19.9722393588      -40.6116663500  TIP3      5297            0.0000000000
     24468      5362  TIP3      OH2            21.2057802499      -12.5424155963      -41.0507202850  TIP3      5298            0.0000000000
     24469      5362  TIP3      H1             20.4474785226      -11.9575250782      -40.8167077605  TIP3      5298            0.0000000000
     24470      5362  TIP3      H2             21.8398292953      -11.8980684681      -41.3677776177  TIP3      5298            0.0000000000
     24471      5363  TIP3      OH2            18.2457539658      -18.3346258512      -43.2155033042  TIP3      5299            0.0000000000
     24472      5363  TIP3      H1             18.9017247319      -17.6530545480      -42.9557601203  TIP3      5299            0.0000000000
     24473      5363  TIP3      H2             18.7091127026      -18.7602222852      -43.9899701687  TIP3      5299            0.0000000000
     24474      5364  TIP3      OH2            19.6410431246      -10.5710824373      -40.2388621317  TIP3      5300            0.0000000000
     24475      5364  TIP3      H1             19.5881118431       -9.6538748451      -40.5602388370  TIP3      5300            0.0000000000
     24476      5364  TIP3      H2             18.7594996535      -10.6653802659      -39.7885145674  TIP3      5300            0.0000000000
     24477      5365  TIP3      OH2            15.7221716220      -11.0025763324      -49.4696908591  TIP3      5301            0.0000000000
     24478      5365  TIP3      H1             15.4832945711      -10.6093039117      -50.3283331735  TIP3      5301            0.0000000000
     24479      5365  TIP3      H2             15.8125551070      -10.2049801045      -48.9111719877  TIP3      5301            0.0000000000
     24480      5366  TIP3      OH2            22.8586006015      -22.7164183252      -43.6327223862  TIP3      5302            0.0000000000
     24481      5366  TIP3      H1             22.6865070327      -23.6610930104      -43.8056544903  TIP3      5302            0.0000000000
     24482      5366  TIP3      H2             21.9643051386      -22.3549130426      -43.6241543921  TIP3      5302            0.0000000000
     24483      5367  TIP3      OH2            19.9537770337      -13.2284045010      -46.4885284710  TIP3      5303            0.0000000000
     24484      5367  TIP3      H1             19.6704831624      -13.6316615656      -47.3417757960  TIP3      5303            0.0000000000
     24485      5367  TIP3      H2             20.5737283391      -13.9064015774      -46.1313285038  TIP3      5303            0.0000000000
     24486      5368  TIP3      OH2            21.2243550069       -9.9196341499      -43.7361945509  TIP3      5304            0.0000000000
     24487      5368  TIP3      H1             21.2441585466      -10.3424142548      -44.6080860960  TIP3      5304            0.0000000000
     24488      5368  TIP3      H2             22.1323786477      -10.1022351401      -43.4327315885  TIP3      5304            0.0000000000
     24489      5369  TIP3      OH2            20.2928088823      -14.4519844244      -42.7697169367  TIP3      5305            0.0000000000
     24490      5369  TIP3      H1             20.8672235472      -14.4450018012      -43.5633097609  TIP3      5305            0.0000000000
     24491      5369  TIP3      H2             20.7449039234      -13.7938245340      -42.1971338521  TIP3      5305            0.0000000000
     24492      5370  TIP3      OH2            21.2215096573      -10.1675962778      -38.0970995632  TIP3      5306            0.0000000000
     24493      5370  TIP3      H1             20.8960148589       -9.3604076798      -37.6385435753  TIP3      5306            0.0000000000
     24494      5370  TIP3      H2             20.5996676928      -10.2840331897      -38.8472754035  TIP3      5306            0.0000000000
     24495      5371  TIP3      OH2            18.2273425731      -13.8978226880      -39.0076076334  TIP3      5307            0.0000000000
     24496      5371  TIP3      H1             18.2753186079      -13.2310381444      -38.2977753358  TIP3      5307            0.0000000000
     24497      5371  TIP3      H2             17.2665272602      -13.8669377558      -39.1612361641  TIP3      5307            0.0000000000
     24498      5372  TIP3      OH2            19.5477239752       -8.0570133354      -37.3815607713  TIP3      5308            0.0000000000
     24499      5372  TIP3      H1             19.4376073559       -8.1450304303      -38.3484893684  TIP3      5308            0.0000000000
     24500      5372  TIP3      H2             18.6210661481       -8.1726250779      -37.0895577753  TIP3      5308            0.0000000000
     24501      5373  TIP3      OH2            18.9243744470      -14.2566259524      -48.8582927611  TIP3      5309            0.0000000000
     24502      5373  TIP3      H1             18.6633389939      -13.4576204150      -49.3608432917  TIP3      5309            0.0000000000
     24503      5373  TIP3      H2             18.2553647058      -14.8973527514      -49.1144271515  TIP3      5309            0.0000000000
     24504      5374  TIP3      OH2            15.0293750439      -11.7794724352      -39.9331993619  TIP3      5310            0.0000000000
     24505      5374  TIP3      H1             14.5918826798      -11.8644561354      -40.8000113783  TIP3      5310            0.0000000000
     24506      5374  TIP3      H2             15.1437307244      -12.7289274018      -39.7227801307  TIP3      5310            0.0000000000
     24507      5375  TIP3      OH2            14.7991068908       -9.0508078928      -43.1881085773  TIP3      5311            0.0000000000
     24508      5375  TIP3      H1             15.7596166931       -9.1583360878      -43.2313729660  TIP3      5311            0.0000000000
     24509      5375  TIP3      H2             14.7178488541       -8.2239453534      -42.6962554139  TIP3      5311            0.0000000000
     24510      5376  TIP3      OH2            18.0765337639       -6.1923211081      -47.0128798563  TIP3      5312            0.0000000000
     24511      5376  TIP3      H1             18.2052480817       -6.5921843131      -46.1273782568  TIP3      5312            0.0000000000
     24512      5376  TIP3      H2             17.2195663262       -6.5910809919      -47.2510279300  TIP3      5312            0.0000000000
     24513      5377  TIP3      OH2            17.3165615032      -10.4691801698      -39.0286444451  TIP3      5313            0.0000000000
     24514      5377  TIP3      H1             17.5363229669      -10.8054148176      -38.1316540115  TIP3      5313            0.0000000000
     24515      5377  TIP3      H2             16.4449770008      -10.8672650459      -39.2292210128  TIP3      5313            0.0000000000
     24516      5378  TIP3      OH2            19.9826146511      -21.4547505543      -43.2022369205  TIP3      5314            0.0000000000
     24517      5378  TIP3      H1             19.1336462719      -21.8803515277      -43.4802178419  TIP3      5314            0.0000000000
     24518      5378  TIP3      H2             19.6716415674      -20.9388808693      -42.4349494667  TIP3      5314            0.0000000000
     24519      5379  TIP3      OH2            20.0872380557      -17.0314668272      -41.7723208825  TIP3      5315            0.0000000000
     24520      5379  TIP3      H1             19.3262518212      -17.0283801209      -41.1600852632  TIP3      5315            0.0000000000
     24521      5379  TIP3      H2             20.0293339476      -16.1427035471      -42.1814107769  TIP3      5315            0.0000000000
     24522      5380  TIP3      OH2            20.0499124353      -16.8780947879      -47.0081813147  TIP3      5316            0.0000000000
     24523      5380  TIP3      H1             19.1122345484      -17.1605668129      -47.0611043910  TIP3      5316            0.0000000000
     24524      5380  TIP3      H2             20.4215755034      -17.2242753136      -47.8419839369  TIP3      5316            0.0000000000
     24525      5381  TIP3      OH2            17.7291044120      -16.7373986612      -40.1475931775  TIP3      5317            0.0000000000
     24526      5381  TIP3      H1             17.8519837585      -16.3558708372      -39.2655920657  TIP3      5317            0.0000000000
     24527      5381  TIP3      H2             17.3201580200      -17.5904969425      -39.9351327438  TIP3      5317            0.0000000000
     24528      5382  TIP3      OH2            20.9791192933      -19.5072818385      -53.2266603109  TIP3      5318            0.0000000000
     24529      5382  TIP3      H1             20.4826717423      -19.8396697040      -52.4572436195  TIP3      5318            0.0000000000
     24530      5382  TIP3      H2             20.3648608160      -18.9374675506      -53.7145345353  TIP3      5318            0.0000000000
     24531      5383  TIP3      OH2            14.4196781498      -19.6488765543      -46.1104345067  TIP3      5319            0.0000000000
     24532      5383  TIP3      H1             15.1390550817      -19.6696085136      -45.4510117232  TIP3      5319            0.0000000000
     24533      5383  TIP3      H2             14.8201408623      -20.0293063882      -46.9198384688  TIP3      5319            0.0000000000
     24534      5384  TIP3      OH2            15.6175749907      -18.9284745763      -50.7808355941  TIP3      5320            0.0000000000
     24535      5384  TIP3      H1             16.1626805800      -18.3530121566      -51.3478752521  TIP3      5320            0.0000000000
     24536      5384  TIP3      H2             14.9394972558      -18.2872331728      -50.4884170412  TIP3      5320            0.0000000000
     24537      5385  TIP3      OH2            22.0904233764      -19.0799515491      -45.7971303556  TIP3      5321            0.0000000000
     24538      5385  TIP3      H1             21.3027741704      -19.4647074858      -45.3772295987  TIP3      5321            0.0000000000
     24539      5385  TIP3      H2             22.7819882169      -19.2901761570      -45.1519659325  TIP3      5321            0.0000000000
     24540      5386  TIP3      OH2            17.4044716503      -17.7660518210      -47.0906354016  TIP3      5322            0.0000000000
     24541      5386  TIP3      H1             16.5261129600      -17.6484800690      -47.5026510515  TIP3      5322            0.0000000000
     24542      5386  TIP3      H2             17.6869494941      -18.6290940823      -47.4538344431  TIP3      5322            0.0000000000
     24543      5387  TIP3      OH2            21.1373452845      -17.7689758912      -49.4341960018  TIP3      5323            0.0000000000
     24544      5387  TIP3      H1             22.0427496379      -17.5108260092      -49.2978688764  TIP3      5323            0.0000000000
     24545      5387  TIP3      H2             20.7932211883      -17.1055716057      -50.0726464111  TIP3      5323            0.0000000000
     24546      5388  TIP3      OH2            19.8121546467      -16.6263432494      -51.8653668888  TIP3      5324            0.0000000000
     24547      5388  TIP3      H1             19.2107151290      -16.9531379743      -52.5588973148  TIP3      5324            0.0000000000
     24548      5388  TIP3      H2             20.5851179324      -16.3740624055      -52.3956437536  TIP3      5324            0.0000000000
     24549      5389  TIP3      OH2            17.8873278448      -11.9959709756      -36.8079510550  TIP3      5325            0.0000000000
     24550      5389  TIP3      H1             18.6301796751      -11.7560877328      -36.2242151450  TIP3      5325            0.0000000000
     24551      5389  TIP3      H2             17.1349405883      -11.9594856567      -36.1791302827  TIP3      5325            0.0000000000
     24552      5390  TIP3      OH2            18.9216143973      -20.4545742446      -47.5936255393  TIP3      5326            0.0000000000
     24553      5390  TIP3      H1             18.5340700324      -21.3509531334      -47.5739215255  TIP3      5326            0.0000000000
     24554      5390  TIP3      H2             19.6766453709      -20.5721286470      -48.1793910218  TIP3      5326            0.0000000000
     24555      5391  TIP3      OH2            22.4517581238      -18.3978782074      -41.4586010534  TIP3      5327            0.0000000000
     24556      5391  TIP3      H1             21.7445300075      -17.7487125518      -41.6746302365  TIP3      5327            0.0000000000
     24557      5391  TIP3      H2             23.0708261295      -17.8545183390      -40.9827914179  TIP3      5327            0.0000000000
     24558      5392  TIP3      OH2            22.9855447056      -12.1062702671      -50.1278096287  TIP3      5328            0.0000000000
     24559      5392  TIP3      H1             22.1320384660      -12.5677431755      -50.2660808570  TIP3      5328            0.0000000000
     24560      5392  TIP3      H2             22.9690831921      -11.9317963443      -49.1706742395  TIP3      5328            0.0000000000
     24561      5393  TIP3      OH2            18.2801099363      -12.6213922544      -44.1249450436  TIP3      5329            0.0000000000
     24562      5393  TIP3      H1             18.8945776775      -12.7346816166      -44.8734783508  TIP3      5329            0.0000000000
     24563      5393  TIP3      H2             18.3122366736      -13.4914878556      -43.6890981005  TIP3      5329            0.0000000000
     24564      5394  TIP3      OH2            15.2276753473      -14.2494756996      -38.8864856721  TIP3      5330            0.0000000000
     24565      5394  TIP3      H1             15.3701465151      -14.7003538203      -38.0312745341  TIP3      5330            0.0000000000
     24566      5394  TIP3      H2             14.6015174128      -14.8394469129      -39.3431557428  TIP3      5330            0.0000000000
     24567      5395  TIP3      OH2            22.3509654388      -14.6393926150      -36.7595400101  TIP3      5331            0.0000000000
     24568      5395  TIP3      H1             21.8538399745      -15.0334601334      -37.4938113747  TIP3      5331            0.0000000000
     24569      5395  TIP3      H2             23.1620082384      -15.1575191996      -36.7260441063  TIP3      5331            0.0000000000
     24570      5396  TIP3      OH2            20.5868445951       -9.1500908787      -46.6688736557  TIP3      5332            0.0000000000
     24571      5396  TIP3      H1             21.0844228678       -8.3835489355      -46.9918635435  TIP3      5332            0.0000000000
     24572      5396  TIP3      H2             19.7113829394       -8.9626879254      -47.0344494903  TIP3      5332            0.0000000000
     24573      5397  TIP3      OH2            16.4031001451      -14.3606661657      -52.1817666269  TIP3      5333            0.0000000000
     24574      5397  TIP3      H1             16.9598848680      -13.6797030671      -51.7647481531  TIP3      5333            0.0000000000
     24575      5397  TIP3      H2             15.4960791201      -14.0641478919      -51.9619333731  TIP3      5333            0.0000000000
     24576      5398  TIP3      OH2            21.9869828261      -11.5048426243      -47.2789939490  TIP3      5334            0.0000000000
     24577      5398  TIP3      H1             21.6623700723      -10.6019098989      -47.1192727189  TIP3      5334            0.0000000000
     24578      5398  TIP3      H2             21.3086163281      -12.0275345731      -46.8093292765  TIP3      5334            0.0000000000
     24579      5399  TIP3      OH2            22.4777062114       -7.3644995279      -40.8928750956  TIP3      5335            0.0000000000
     24580      5399  TIP3      H1             22.8940200671       -6.5075592106      -41.0410810011  TIP3      5335            0.0000000000
     24581      5399  TIP3      H2             23.0332996199       -7.7294093495      -40.1896999537  TIP3      5335            0.0000000000
     24582      5400  TIP3      OH2            20.7198126765       -6.4931313790      -47.7350501380  TIP3      5336            0.0000000000
     24583      5400  TIP3      H1             19.7440391317       -6.4577410775      -47.5761065892  TIP3      5336            0.0000000000
     24584      5400  TIP3      H2             20.9733171772       -5.6760695066      -47.2899507927  TIP3      5336            0.0000000000
     24585      5401  TIP3      OH2            16.8881065148      -19.5871005944      -39.3259637727  TIP3      5337            0.0000000000
     24586      5401  TIP3      H1             16.0021863946      -19.1982446225      -39.3072293523  TIP3      5337            0.0000000000
     24587      5401  TIP3      H2             16.7313110385      -20.4415310971      -38.8881409658  TIP3      5337            0.0000000000
     24588      5402  TIP3      OH2            16.4961317612       -7.7528914499      -40.9141174892  TIP3      5338            0.0000000000
     24589      5402  TIP3      H1             16.8447965506       -8.6539675825      -40.9042063617  TIP3      5338            0.0000000000
     24590      5402  TIP3      H2             16.7521640185       -7.4359106363      -40.0417847942  TIP3      5338            0.0000000000
     24591      5403  TIP3      OH2            22.3365540999       -9.1442737683      -53.7299127593  TIP3      5339            0.0000000000
     24592      5403  TIP3      H1             22.5821982177       -9.9398852047      -54.2133850947  TIP3      5339            0.0000000000
     24593      5403  TIP3      H2             22.0941910266       -9.5571124877      -52.8705688701  TIP3      5339            0.0000000000
     24594      5404  TIP3      OH2            21.2340466764       -9.6718226420      -51.1620449481  TIP3      5340            0.0000000000
     24595      5404  TIP3      H1             21.5586893871      -10.2202323865      -50.4383936037  TIP3      5340            0.0000000000
     24596      5404  TIP3      H2             21.3375293882       -8.7493369329      -50.8326043481  TIP3      5340            0.0000000000
     24597      5405  TIP3      OH2            17.8090104113      -12.4187542215      -50.6784203368  TIP3      5341            0.0000000000
     24598      5405  TIP3      H1             17.0881022272      -12.0078917231      -50.1620010792  TIP3      5341            0.0000000000
     24599      5405  TIP3      H2             18.2901409112      -11.6426899663      -51.0162555223  TIP3      5341            0.0000000000
     24600      5406  TIP3      OH2            21.3858465617       -6.9946939327      -50.4869327302  TIP3      5342            0.0000000000
     24601      5406  TIP3      H1             21.4838581443       -6.1844340719      -51.0469373888  TIP3      5342            0.0000000000
     24602      5406  TIP3      H2             21.1470003340       -6.6306749725      -49.6129714584  TIP3      5342            0.0000000000
     24603      5407  TIP3      OH2            19.9066924189      -20.1645257320      -50.8955688205  TIP3      5343            0.0000000000
     24604      5407  TIP3      H1             19.9556839070      -19.3053183751      -50.4591722810  TIP3      5343            0.0000000000
     24605      5407  TIP3      H2             20.8246461671      -20.4701930821      -50.6947714925  TIP3      5343            0.0000000000
     24606      5408  TIP3      OH2            18.3135134063       -9.8119472127      -51.8530444847  TIP3      5344            0.0000000000
     24607      5408  TIP3      H1             19.0172728433       -9.2342679132      -51.5113701257  TIP3      5344            0.0000000000
     24608      5408  TIP3      H2             18.8522112064      -10.2938174239      -52.5117362321  TIP3      5344            0.0000000000
     24609      5409  TIP3      OH2            16.6535331703      -17.1407993578      -52.6919886274  TIP3      5345            0.0000000000
     24610      5409  TIP3      H1             16.7068904117      -16.1910392655      -52.4522605732  TIP3      5345            0.0000000000
     24611      5409  TIP3      H2             15.7555559477      -17.2544072258      -53.0143997319  TIP3      5345            0.0000000000
     24612      5410  TIP3      OH2            17.4361136643      -22.2642110319      -44.0242246180  TIP3      5346            0.0000000000
     24613      5410  TIP3      H1             17.2577291918      -22.3383067534      -44.9836882142  TIP3      5346            0.0000000000
     24614      5410  TIP3      H2             17.1156156619      -23.1310197530      -43.6915395228  TIP3      5346            0.0000000000
     24615      5411  TIP3      OH2            16.4344947764       -8.4271056264      -47.7772697464  TIP3      5347            0.0000000000
     24616      5411  TIP3      H1             15.5708822891       -7.9994778414      -47.8465718956  TIP3      5347            0.0000000000
     24617      5411  TIP3      H2             16.8813791628       -7.9962442868      -48.5202653910  TIP3      5347            0.0000000000
     24618      5412  TIP3      OH2            15.6028707616       -5.7759040734      -36.5214083794  TIP3      5348            0.0000000000
     24619      5412  TIP3      H1             16.2424586886       -5.9519154147      -35.7991220155  TIP3      5348            0.0000000000
     24620      5412  TIP3      H2             15.2444185585       -6.6644816032      -36.6915864528  TIP3      5348            0.0000000000
     24621      5413  TIP3      OH2            20.3439053569       -6.8579785870      -34.9277877838  TIP3      5349            0.0000000000
     24622      5413  TIP3      H1             21.1234781041       -7.3368665712      -34.5878007651  TIP3      5349            0.0000000000
     24623      5413  TIP3      H2             20.2855341506       -7.1775984533      -35.8503158907  TIP3      5349            0.0000000000
     24624      5414  TIP3      OH2            15.5095000469      -12.0200698977      -35.5044086920  TIP3      5350            0.0000000000
     24625      5414  TIP3      H1             15.6866640619      -12.9306846738      -35.8003237627  TIP3      5350            0.0000000000
     24626      5414  TIP3      H2             14.7988228435      -11.7573258208      -36.1124711531  TIP3      5350            0.0000000000
     24627      5415  TIP3      OH2            19.8361061671      -11.7160024574      -53.5150415678  TIP3      5351            0.0000000000
     24628      5415  TIP3      H1             20.0243429539      -12.4194522106      -52.8822118979  TIP3      5351            0.0000000000
     24629      5415  TIP3      H2             20.6283288736      -11.7877149044      -54.0844254241  TIP3      5351            0.0000000000
     24630      5416  TIP3      OH2            22.2190507234      -11.9856929090      -36.1270539995  TIP3      5352            0.0000000000
     24631      5416  TIP3      H1             21.8724393218      -11.6408750456      -36.9785524049  TIP3      5352            0.0000000000
     24632      5416  TIP3      H2             22.2990599637      -12.9571118510      -36.2983500047  TIP3      5352            0.0000000000
     24633      5417  TIP3      OH2            16.4921518119      -14.7773033476      -36.1253549111  TIP3      5353            0.0000000000
     24634      5417  TIP3      H1             16.9145736695      -15.6385875137      -36.2037014545  TIP3      5353            0.0000000000
     24635      5417  TIP3      H2             16.2661094946      -14.7604418213      -35.1816690162  TIP3      5353            0.0000000000
     24636      5418  TIP3      OH2            21.0164568813      -13.6663165839      -51.0446384499  TIP3      5354            0.0000000000
     24637      5418  TIP3      H1             20.4973829801      -14.2253990905      -50.4545185390  TIP3      5354            0.0000000000
     24638      5418  TIP3      H2             21.3751820264      -14.2899243406      -51.7110039727  TIP3      5354            0.0000000000
     24639      5419  TIP3      OH2            20.3406535475      -15.8493102525      -38.7746840751  TIP3      5355            0.0000000000
     24640      5419  TIP3      H1             19.7188810351      -15.1404221613      -38.5506332343  TIP3      5355            0.0000000000
     24641      5419  TIP3      H2             20.7489805005      -15.4745544923      -39.5773200188  TIP3      5355            0.0000000000
     24642      5420  TIP3      OH2            22.1868699333      -15.3771859390      -52.8701942398  TIP3      5356            0.0000000000
     24643      5420  TIP3      H1             21.9458969096      -15.5919393471      -53.7926715395  TIP3      5356            0.0000000000
     24644      5420  TIP3      H2             23.1492619273      -15.3990370261      -52.9117870918  TIP3      5356            0.0000000000
     24645      5421  TIP3      OH2            20.8282559804      -18.5152758001      -37.7796531254  TIP3      5357            0.0000000000
     24646      5421  TIP3      H1             20.9490869707      -19.1768143652      -38.4856578886  TIP3      5357            0.0000000000
     24647      5421  TIP3      H2             20.7237509711      -17.6876122500      -38.2967761335  TIP3      5357            0.0000000000
     24648      5422  TIP3      OH2            21.1116847629      -19.9854389935      -40.1207261133  TIP3      5358            0.0000000000
     24649      5422  TIP3      H1             21.6261483977      -19.5402221666      -40.8353732128  TIP3      5358            0.0000000000
     24650      5422  TIP3      H2             20.2414886528      -20.0529013799      -40.5609803049  TIP3      5358            0.0000000000
     24651      5423  TIP3      OH2            22.4523094434      -14.7626880014      -40.2628926566  TIP3      5359            0.0000000000
     24652      5423  TIP3      H1             23.3216871081      -14.7774896691      -40.6915674772  TIP3      5359            0.0000000000
     24653      5423  TIP3      H2             22.2193063219      -13.8146555524      -40.3707304439  TIP3      5359            0.0000000000
     24654      5424  TIP3      OH2            19.2593628274      -17.2262116686      -35.8280425321  TIP3      5360            0.0000000000
     24655      5424  TIP3      H1             18.4731364597      -17.7854005101      -35.9920301167  TIP3      5360            0.0000000000
     24656      5424  TIP3      H2             19.9000954185      -17.6239474816      -36.4439515299  TIP3      5360            0.0000000000
     24657      5425  TIP3      OH2            21.0179740777      -22.4298990035      -39.6398371818  TIP3      5361            0.0000000000
     24658      5425  TIP3      H1             21.4488711821      -21.5504082158      -39.8282137224  TIP3      5361            0.0000000000
     24659      5425  TIP3      H2             21.1269208571      -22.9343992346      -40.4461422400  TIP3      5361            0.0000000000
     24660      5426  TIP3      OH2            22.6577015740      -17.8947504549      -35.6995334530  TIP3      5362            0.0000000000
     24661      5426  TIP3      H1             22.7757669193      -18.6403616136      -35.0915993752  TIP3      5362            0.0000000000
     24662      5426  TIP3      H2             22.2849392722      -18.3325595885      -36.4921854882  TIP3      5362            0.0000000000
     24663      5427  TIP3      OH2            17.3079039223      -19.2893383418      -36.0349317910  TIP3      5363            0.0000000000
     24664      5427  TIP3      H1             17.5494432050      -20.0354428394      -36.6145334490  TIP3      5363            0.0000000000
     24665      5427  TIP3      H2             17.2428553459      -19.7081388824      -35.1561961758  TIP3      5363            0.0000000000
     24666      5428  TIP3      OH2            22.5126758319       24.2606769736      -37.5535712608  TIP3      5364            0.0000000000
     24667      5428  TIP3      H1             23.0166652654       23.4607257228      -37.3838687644  TIP3      5364            0.0000000000
     24668      5428  TIP3      H2             21.9949824990       23.9659946145      -38.3341189275  TIP3      5364            0.0000000000
     24669      5429  TIP3      OH2            22.5445437331      -21.6218453199      -34.9482821436  TIP3      5365            0.0000000000
     24670      5429  TIP3      H1             22.4429220092      -21.9962533058      -35.8442219388  TIP3      5365            0.0000000000
     24671      5429  TIP3      H2             21.9498318823      -20.8460332438      -34.9729610166  TIP3      5365            0.0000000000
     24672      5430  TIP3      OH2            22.0455050652       -4.6916787242      -51.7639886105  TIP3      5366            0.0000000000
     24673      5430  TIP3      H1             23.0064842761       -4.6442447054      -51.7832718344  TIP3      5366            0.0000000000
     24674      5430  TIP3      H2             21.8937198356       -4.1192684073      -52.5342899722  TIP3      5366            0.0000000000
     24675      5431  TIP3      OH2            15.5444713830      -10.1583199721      -52.3072533381  TIP3      5367            0.0000000000
     24676      5431  TIP3      H1             16.5139093239      -10.0557960655      -52.1478415822  TIP3      5367            0.0000000000
     24677      5431  TIP3      H2             15.5744257789      -10.7838488277      -53.0719818552  TIP3      5367            0.0000000000
     24678      5432  TIP3      OH2            14.3713202764       -4.7833909996      -47.3823480140  TIP3      5368            0.0000000000
     24679      5432  TIP3      H1             13.6241959199       -5.2546759897      -47.8153003799  TIP3      5368            0.0000000000
     24680      5432  TIP3      H2             14.6160792326       -5.4210450600      -46.6829555015  TIP3      5368            0.0000000000
     24681      5433  TIP3      OH2            15.1787305932       -6.6266336832      -45.4620778979  TIP3      5369            0.0000000000
     24682      5433  TIP3      H1             14.8030708388       -7.4914414006      -45.2490262300  TIP3      5369            0.0000000000
     24683      5433  TIP3      H2             15.4186588229       -6.2957970483      -44.5786197400  TIP3      5369            0.0000000000
     24684      5434  TIP3      OH2            15.2343046751      -13.5318623186      -42.9701465707  TIP3      5370            0.0000000000
     24685      5434  TIP3      H1             15.3931328481      -13.6262944593      -43.9354431449  TIP3      5370            0.0000000000
     24686      5434  TIP3      H2             16.1287005712      -13.7435846279      -42.6316065113  TIP3      5370            0.0000000000
     24687      5435  TIP3      OH2            14.8954989560      -18.2454097764      -36.7674496221  TIP3      5371            0.0000000000
     24688      5435  TIP3      H1             15.8219560550      -18.5351622135      -36.6341214732  TIP3      5371            0.0000000000
     24689      5435  TIP3      H2             14.4049943442      -19.0843044639      -36.6259417285  TIP3      5371            0.0000000000
     24690      5436  TIP3      OH2            16.0499224785      -19.9310730361      -43.9671210212  TIP3      5372            0.0000000000
     24691      5436  TIP3      H1             16.4990651495      -20.7583983081      -43.7063031196  TIP3      5372            0.0000000000
     24692      5436  TIP3      H2             16.6552720201      -19.2496329411      -43.6397265400  TIP3      5372            0.0000000000
     24693      5437  TIP3      OH2            14.3282234747      -16.9329505283      -42.9569691557  TIP3      5373            0.0000000000
     24694      5437  TIP3      H1             14.9029482708      -17.2164397940      -43.6962661973  TIP3      5373            0.0000000000
     24695      5437  TIP3      H2             14.8278763066      -16.1502180599      -42.6806107582  TIP3      5373            0.0000000000
     24696      5438  TIP3      OH2            14.6659270027      -20.5461691794      -48.7612916850  TIP3      5374            0.0000000000
     24697      5438  TIP3      H1             13.7338735164      -20.5324164571      -49.0308502396  TIP3      5374            0.0000000000
     24698      5438  TIP3      H2             15.1135733220      -20.1832227587      -49.5519158037  TIP3      5374            0.0000000000
     24699      5439  TIP3      OH2            14.7341701603      -21.8748678719      -40.5023841281  TIP3      5375            0.0000000000
     24700      5439  TIP3      H1             14.0761354903      -22.1899639702      -39.8713203744  TIP3      5375            0.0000000000
     24701      5439  TIP3      H2             14.2447219908      -21.2851749432      -41.1089813313  TIP3      5375            0.0000000000
     24702      5440  TIP3      OH2            16.9079935189       -8.8646250335      -36.4332566856  TIP3      5376            0.0000000000
     24703      5440  TIP3      H1             16.0696181053       -8.6189782755      -36.8608182327  TIP3      5376            0.0000000000
     24704      5440  TIP3      H2             16.6473137324       -8.9427716416      -35.5131634842  TIP3      5376            0.0000000000
     24705      5441  TIP3      OH2            19.7537697205       -7.7668063587      -40.1085340772  TIP3      5377            0.0000000000
     24706      5441  TIP3      H1             19.4904228848       -6.8892306938      -40.4142056371  TIP3      5377            0.0000000000
     24707      5441  TIP3      H2             20.6942633603       -7.7459440705      -40.3775700511  TIP3      5377            0.0000000000
     24708      5442  TIP3      OH2            17.2089324749       -4.6013944155      -40.1727792053  TIP3      5378            0.0000000000
     24709      5442  TIP3      H1             16.4760335818       -4.0803759216      -40.5397211091  TIP3      5378            0.0000000000
     24710      5442  TIP3      H2             16.9288032026       -4.7601668055      -39.2594266261  TIP3      5378            0.0000000000
     24711      5443  TIP3      OH2            19.6675785394       -5.0505007540      -41.1324147258  TIP3      5379            0.0000000000
     24712      5443  TIP3      H1             18.8077422281       -4.8604705857      -40.6841302011  TIP3      5379            0.0000000000
     24713      5443  TIP3      H2             19.6035457650       -4.3979358129      -41.8512733272  TIP3      5379            0.0000000000
     24714      5444  TIP3      OH2            16.7030492341       -5.9534247457      -43.2193653520  TIP3      5380            0.0000000000
     24715      5444  TIP3      H1             16.6149696683       -6.4377309076      -42.3723660739  TIP3      5380            0.0000000000
     24716      5444  TIP3      H2             17.5154852271       -6.3451798397      -43.6012707155  TIP3      5380            0.0000000000
     24717      5445  TIP3      OH2            18.7741590510       -7.2262555645      -44.5708140279  TIP3      5381            0.0000000000
     24718      5445  TIP3      H1             18.6372211692       -8.1576604060      -44.3107401783  TIP3      5381            0.0000000000
     24719      5445  TIP3      H2             19.6303480497       -7.0535649643      -44.1354420570  TIP3      5381            0.0000000000
     24720      5446  TIP3      OH2            21.3920917769       -6.7678961074      -43.6760339997  TIP3      5382            0.0000000000
     24721      5446  TIP3      H1             21.5050496168       -7.6978846042      -43.9371657331  TIP3      5382            0.0000000000
     24722      5446  TIP3      H2             21.3514545219       -6.8227878704      -42.7095273232  TIP3      5382            0.0000000000
     24723      5447  TIP3      OH2            17.1346679130      -22.5470710304      -46.6664045585  TIP3      5383            0.0000000000
     24724      5447  TIP3      H1             16.3981490426      -22.6862962384      -47.2727290312  TIP3      5383            0.0000000000
     24725      5447  TIP3      H2             17.6333894882      -23.3627066858      -46.7593435006  TIP3      5383            0.0000000000
     24726      5448  TIP3      OH2            16.0433350261      -22.3008751852      -50.3666067578  TIP3      5384            0.0000000000
     24727      5448  TIP3      H1             16.3040146492      -21.8772100575      -51.1979688029  TIP3      5384            0.0000000000
     24728      5448  TIP3      H2             15.1287647485      -22.0032373946      -50.2747127144  TIP3      5384            0.0000000000
     24729      5449  TIP3      OH2            21.6700160489      -22.3506775204      -47.0171790302  TIP3      5385            0.0000000000
     24730      5449  TIP3      H1             22.5883993497      -22.0960221401      -46.9058413407  TIP3      5385            0.0000000000
     24731      5449  TIP3      H2             21.5426937833      -22.9010239781      -46.2149229285  TIP3      5385            0.0000000000
     24732      5450  TIP3      OH2            15.8433241016       -6.8019261781      -49.9015094000  TIP3      5386            0.0000000000
     24733      5450  TIP3      H1             15.1881954451       -6.8151218622      -50.6248596438  TIP3      5386            0.0000000000
     24734      5450  TIP3      H2             15.8940694601       -5.8432085655      -49.7836594808  TIP3      5386            0.0000000000
     24735      5451  TIP3      OH2            17.7482072648      -20.8328958504      -52.4558087204  TIP3      5387            0.0000000000
     24736      5451  TIP3      H1             18.3347655122      -21.3619398582      -53.0196977759  TIP3      5387            0.0000000000
     24737      5451  TIP3      H2             18.4034632090      -20.4596227818      -51.8310898682  TIP3      5387            0.0000000000
     24738      5452  TIP3      OH2            22.4073948775      -20.4617459069      -50.3979263047  TIP3      5388            0.0000000000
     24739      5452  TIP3      H1             22.7548046240      -21.1634431723      -49.8346846021  TIP3      5388            0.0000000000
     24740      5452  TIP3      H2             22.7184178476      -19.6800345779      -49.9355658599  TIP3      5388            0.0000000000
     24741      5453  TIP3      OH2            17.1312389587      -21.7934564016      -37.3269382883  TIP3      5389            0.0000000000
     24742      5453  TIP3      H1             16.6536637337      -22.5921106428      -36.9919196686  TIP3      5389            0.0000000000
     24743      5453  TIP3      H2             17.9584131431      -21.9379926396      -36.8214870257  TIP3      5389            0.0000000000
     24744      5454  TIP3      OH2            19.0813312918      -22.5964785151      -35.6979395206  TIP3      5390            0.0000000000
     24745      5454  TIP3      H1             20.0018383932      -22.8725877372      -35.7824549211  TIP3      5390            0.0000000000
     24746      5454  TIP3      H2             18.7148780971      -23.3861047317      -35.2665730332  TIP3      5390            0.0000000000
     24747      5455  TIP3      OH2            17.6484873802       -5.7902390999      -52.9870586040  TIP3      5391            0.0000000000
     24748      5455  TIP3      H1             17.3766756441       -5.5370689620      -52.0902828044  TIP3      5391            0.0000000000
     24749      5455  TIP3      H2             18.4348519479       -6.3512733301      -52.8286064968  TIP3      5391            0.0000000000
     24750      5456  TIP3      OH2           -11.4196064378        5.5194462510      -46.8807001159  TIP3      5392            0.0000000000
     24751      5456  TIP3      H1            -11.4894120602        6.4999353868      -46.8377497338  TIP3      5392            0.0000000000
     24752      5456  TIP3      H2            -12.1876098402        5.2937876864      -47.4288040225  TIP3      5392            0.0000000000
     24753      5457  TIP3      OH2           -12.6355545663        4.7807108469      -43.3416059289  TIP3      5393            0.0000000000
     24754      5457  TIP3      H1            -12.5916303472        4.1373016435      -42.6173167534  TIP3      5393            0.0000000000
     24755      5457  TIP3      H2            -12.9674202339        4.2289689530      -44.0715714042  TIP3      5393            0.0000000000
     24756      5458  TIP3      OH2           -20.2570624513        4.4601979183      -41.7571942551  TIP3      5394            0.0000000000
     24757      5458  TIP3      H1            -20.1433394893        3.7258520607      -41.1189782356  TIP3      5394            0.0000000000
     24758      5458  TIP3      H2            -19.4629913676        4.9985686138      -41.5873188510  TIP3      5394            0.0000000000
     24759      5459  TIP3      OH2            -8.9462635861        7.7167924365      -45.0337272339  TIP3      5395            0.0000000000
     24760      5459  TIP3      H1             -9.3314818818        6.9949459855      -44.5304467070  TIP3      5395            0.0000000000
     24761      5459  TIP3      H2             -8.8843794496        8.4125020239      -44.3567130346  TIP3      5395            0.0000000000
     24762      5460  TIP3      OH2           -19.3786609225        8.9098446865      -43.3048754163  TIP3      5396            0.0000000000
     24763      5460  TIP3      H1            -19.6504173550        8.0170158928      -43.6024179596  TIP3      5396            0.0000000000
     24764      5460  TIP3      H2            -18.4172195902        8.7526114710      -43.2740266367  TIP3      5396            0.0000000000
     24765      5461  TIP3      OH2           -22.6296388942        2.4617132990      -47.8541360358  TIP3      5397            0.0000000000
     24766      5461  TIP3      H1            -22.9995189278        3.3548145237      -47.8163740061  TIP3      5397            0.0000000000
     24767      5461  TIP3      H2            -23.2626911243        1.8896965430      -48.2556637885  TIP3      5397            0.0000000000
     24768      5462  TIP3      OH2           -21.9205475371        4.6633897907      -45.5792124032  TIP3      5398            0.0000000000
     24769      5462  TIP3      H1            -21.6752325966        3.7934513253      -45.2151079140  TIP3      5398            0.0000000000
     24770      5462  TIP3      H2            -21.2597845100        4.8104964464      -46.2700867654  TIP3      5398            0.0000000000
     24771      5463  TIP3      OH2           -11.8133708109       12.8848686426      -44.8022569394  TIP3      5399            0.0000000000
     24772      5463  TIP3      H1            -11.1493914552       12.2163797220      -45.1029309893  TIP3      5399            0.0000000000
     24773      5463  TIP3      H2            -12.0444812795       12.5058484843      -43.9524095133  TIP3      5399            0.0000000000
     24774      5464  TIP3      OH2           -14.2312946502        7.1535141579      -42.8141868573  TIP3      5400            0.0000000000
     24775      5464  TIP3      H1            -13.9046760052        6.5392453684      -43.4946129097  TIP3      5400            0.0000000000
     24776      5464  TIP3      H2            -13.3974871062        7.3285176643      -42.3381508223  TIP3      5400            0.0000000000
     24777      5465  TIP3      OH2            -5.5750737033       -1.2092466990      -42.1038771102  TIP3      5401            0.0000000000
     24778      5465  TIP3      H1             -5.4592238568       -0.5673292486      -41.3802433566  TIP3      5401            0.0000000000
     24779      5465  TIP3      H2             -5.0775622441       -0.7825611143      -42.8153473667  TIP3      5401            0.0000000000
     24780      5466  TIP3      OH2           -11.1618318625        1.6668214167      -42.4702665777  TIP3      5402            0.0000000000
     24781      5466  TIP3      H1            -10.8508786628        0.7447896165      -42.5202370474  TIP3      5402            0.0000000000
     24782      5466  TIP3      H2            -11.1489461133        1.7790493117      -43.4412672196  TIP3      5402            0.0000000000
     24783      5467  TIP3      OH2           -17.9775880254       -0.2669953499      -45.3299360390  TIP3      5403            0.0000000000
     24784      5467  TIP3      H1            -17.8271633856        0.5635956172      -45.8272701262  TIP3      5403            0.0000000000
     24785      5467  TIP3      H2            -18.3453592847       -0.8174792537      -46.0597884287  TIP3      5403            0.0000000000
     24786      5468  TIP3      OH2           -10.0960026005       -0.3059077416      -47.4157668725  TIP3      5404            0.0000000000
     24787      5468  TIP3      H1             -9.8298847230       -0.4798141524      -46.4751554334  TIP3      5404            0.0000000000
     24788      5468  TIP3      H2             -9.6072431534        0.5059035284      -47.5480754314  TIP3      5404            0.0000000000
     24789      5469  TIP3      OH2           -21.2130760936        2.1702877133      -44.6500044776  TIP3      5405            0.0000000000
     24790      5469  TIP3      H1            -20.6199505737        1.5877000437      -44.1475646766  TIP3      5405            0.0000000000
     24791      5469  TIP3      H2            -21.1498883566        1.7715548752      -45.5311087580  TIP3      5405            0.0000000000
     24792      5470  TIP3      OH2           -16.1985165855        3.6907207801      -45.2343845276  TIP3      5406            0.0000000000
     24793      5470  TIP3      H1            -15.4910529111        3.1132745062      -44.8888677757  TIP3      5406            0.0000000000
     24794      5470  TIP3      H2            -16.6738957046        3.0535003405      -45.8014924987  TIP3      5406            0.0000000000
     24795      5471  TIP3      OH2            -5.1845458845        0.2300301511      -39.8239141781  TIP3      5407            0.0000000000
     24796      5471  TIP3      H1             -5.7698396401        1.0055583504      -39.9791829522  TIP3      5407            0.0000000000
     24797      5471  TIP3      H2             -5.1836893419        0.1904271022      -38.8627695998  TIP3      5407            0.0000000000
     24798      5472  TIP3      OH2           -18.9726519232       -1.3868669698      -41.3281519389  TIP3      5408            0.0000000000
     24799      5472  TIP3      H1            -19.2887329682       -0.7896892860      -42.0364301166  TIP3      5408            0.0000000000
     24800      5472  TIP3      H2            -19.6569314826       -1.1801466867      -40.6407503079  TIP3      5408            0.0000000000
     24801      5473  TIP3      OH2           -11.7737773990        8.0912516591      -47.7437535128  TIP3      5409            0.0000000000
     24802      5473  TIP3      H1            -11.9934368599        7.8453830107      -48.6551873016  TIP3      5409            0.0000000000
     24803      5473  TIP3      H2            -12.0626683495        9.0297510988      -47.6933919418  TIP3      5409            0.0000000000
     24804      5474  TIP3      OH2           -16.5402413353        6.2591725661      -41.0805469962  TIP3      5410            0.0000000000
     24805      5474  TIP3      H1            -17.2364506580        6.8954449212      -40.8082617010  TIP3      5410            0.0000000000
     24806      5474  TIP3      H2            -15.8331372397        6.8604012580      -41.3715281242  TIP3      5410            0.0000000000
     24807      5475  TIP3      OH2            -7.4774496665       -1.4470767081      -44.7290681797  TIP3      5411            0.0000000000
     24808      5475  TIP3      H1             -8.4290823359       -1.5994750529      -44.5997339177  TIP3      5411            0.0000000000
     24809      5475  TIP3      H2             -7.5415147725       -0.5025914256      -44.5128883605  TIP3      5411            0.0000000000
     24810      5476  TIP3      OH2           -19.4483299230        0.4644173454      -43.2089288605  TIP3      5412            0.0000000000
     24811      5476  TIP3      H1            -18.8332382282        1.1717436112      -42.9220990519  TIP3      5412            0.0000000000
     24812      5476  TIP3      H2            -18.9493777192        0.1137624406      -43.9958520761  TIP3      5412            0.0000000000
     24813      5477  TIP3      OH2           -18.0436360417        8.2944166223      -40.2518957157  TIP3      5413            0.0000000000
     24814      5477  TIP3      H1            -18.0862146933        9.2094402827      -40.5872286067  TIP3      5413            0.0000000000
     24815      5477  TIP3      H2            -18.9289719103        8.2042117527      -39.8362535856  TIP3      5413            0.0000000000
     24816      5478  TIP3      OH2           -21.5624430787        8.1491384807      -49.5208171917  TIP3      5414            0.0000000000
     24817      5478  TIP3      H1            -22.2680781937        8.0745254390      -50.1917933349  TIP3      5414            0.0000000000
     24818      5478  TIP3      H2            -21.9257243938        8.7768985707      -48.8853083550  TIP3      5414            0.0000000000
     24819      5479  TIP3      OH2            -8.3969738950        9.5656260909      -42.6828471925  TIP3      5415            0.0000000000
     24820      5479  TIP3      H1             -9.3659580482        9.6863019998      -42.5638633656  TIP3      5415            0.0000000000
     24821      5479  TIP3      H2             -8.1286289622       10.4754973246      -42.9089238638  TIP3      5415            0.0000000000
     24822      5480  TIP3      OH2            -8.0330366094       -2.1585092721      -41.2394351577  TIP3      5416            0.0000000000
     24823      5480  TIP3      H1             -8.7951408999       -1.5945565676      -41.4148994006  TIP3      5416            0.0000000000
     24824      5480  TIP3      H2             -7.3689863622       -1.7730797288      -41.8521905800  TIP3      5416            0.0000000000
     24825      5481  TIP3      OH2           -15.2064066358       -4.0473992975      -43.9664420181  TIP3      5417            0.0000000000
     24826      5481  TIP3      H1            -15.2378987289       -5.0110002700      -43.8311556783  TIP3      5417            0.0000000000
     24827      5481  TIP3      H2            -15.9677346632       -3.7173108573      -43.4409909903  TIP3      5417            0.0000000000
     24828      5482  TIP3      OH2           -10.1245616304       11.3500674350      -46.1106179902  TIP3      5418            0.0000000000
     24829      5482  TIP3      H1             -9.7188281872       10.6163300917      -46.6184882406  TIP3      5418            0.0000000000
     24830      5482  TIP3      H2             -9.6330523313       12.1177313654      -46.4756501594  TIP3      5418            0.0000000000
     24831      5483  TIP3      OH2            -8.8983456679        9.2665849643      -47.5709293184  TIP3      5419            0.0000000000
     24832      5483  TIP3      H1             -9.2135014714        8.5825180484      -48.1829214826  TIP3      5419            0.0000000000
     24833      5483  TIP3      H2             -8.8753499023        8.7670447167      -46.7353293150  TIP3      5419            0.0000000000
     24834      5484  TIP3      OH2            -7.3266207975        7.8898117868      -39.0846382375  TIP3      5420            0.0000000000
     24835      5484  TIP3      H1             -7.1599823639        7.1997252055      -39.7647446718  TIP3      5420            0.0000000000
     24836      5484  TIP3      H2             -7.0828386606        8.6985873068      -39.5743369245  TIP3      5420            0.0000000000
     24837      5485  TIP3      OH2           -12.8064336371        4.7367971187      -49.3384217035  TIP3      5421            0.0000000000
     24838      5485  TIP3      H1            -13.4810442679        5.3432922368      -49.6928658140  TIP3      5421            0.0000000000
     24839      5485  TIP3      H2            -12.0782152765        4.8506847307      -49.9763524178  TIP3      5421            0.0000000000
     24840      5486  TIP3      OH2           -12.6837514668        3.3441044077      -52.3286312044  TIP3      5422            0.0000000000
     24841      5486  TIP3      H1            -11.9919641540        3.3353076623      -51.6453463560  TIP3      5422            0.0000000000
     24842      5486  TIP3      H2            -12.3953482827        2.5914847749      -52.8563002195  TIP3      5422            0.0000000000
     24843      5487  TIP3      OH2            -5.4117226799        4.1927426730      -41.0744686490  TIP3      5423            0.0000000000
     24844      5487  TIP3      H1             -6.0516276178        4.9297384597      -41.0330138258  TIP3      5423            0.0000000000
     24845      5487  TIP3      H2             -4.8846866014        4.4480983420      -41.8551335281  TIP3      5423            0.0000000000
     24846      5488  TIP3      OH2            -9.3156296455        4.9346991573      -48.3995591430  TIP3      5424            0.0000000000
     24847      5488  TIP3      H1            -10.0637282041        5.1969784188      -47.8092007663  TIP3      5424            0.0000000000
     24848      5488  TIP3      H2             -8.8339164529        4.2920144454      -47.8507189481  TIP3      5424            0.0000000000
     24849      5489  TIP3      OH2            -9.4128524762        3.1184278916      -39.2803367866  TIP3      5425            0.0000000000
     24850      5489  TIP3      H1             -9.4270613145        3.9502577368      -38.7737249222  TIP3      5425            0.0000000000
     24851      5489  TIP3      H2            -10.0348021264        3.3882384433      -39.9837834795  TIP3      5425            0.0000000000
     24852      5490  TIP3      OH2           -17.7190598000        5.6136366662      -46.4707112726  TIP3      5426            0.0000000000
     24853      5490  TIP3      H1            -18.0484772274        5.2291200064      -47.3230047330  TIP3      5426            0.0000000000
     24854      5490  TIP3      H2            -17.1076045835        4.9180165732      -46.1462256821  TIP3      5426            0.0000000000
     24855      5491  TIP3      OH2           -16.4596520622        8.9819356385      -43.7906165259  TIP3      5427            0.0000000000
     24856      5491  TIP3      H1            -16.4162478650        8.5036873179      -44.6353031739  TIP3      5427            0.0000000000
     24857      5491  TIP3      H2            -15.6492848695        8.6511300566      -43.3528497178  TIP3      5427            0.0000000000
     24858      5492  TIP3      OH2           -17.4368555134        4.3662917225      -42.7983171591  TIP3      5428            0.0000000000
     24859      5492  TIP3      H1            -16.9017731130        4.4418882897      -43.6147370782  TIP3      5428            0.0000000000
     24860      5492  TIP3      H2            -17.0166360344        5.0362137748      -42.2124876922  TIP3      5428            0.0000000000
     24861      5493  TIP3      OH2           -10.9652823912        9.9592174309      -42.0930880134  TIP3      5429            0.0000000000
     24862      5493  TIP3      H1            -11.2591997964       10.5959858288      -41.4326042648  TIP3      5429            0.0000000000
     24863      5493  TIP3      H2            -11.2202237915        9.1012322896      -41.6859972487  TIP3      5429            0.0000000000
     24864      5494  TIP3      OH2           -16.4357808567        8.8126333593      -38.1100197319  TIP3      5430            0.0000000000
     24865      5494  TIP3      H1            -16.9104836716        9.5146572541      -37.6140114694  TIP3      5430            0.0000000000
     24866      5494  TIP3      H2            -17.0660908885        8.6056101824      -38.8422086191  TIP3      5430            0.0000000000
     24867      5495  TIP3      OH2           -10.4489142868        4.1993006439      -50.7588783435  TIP3      5431            0.0000000000
     24868      5495  TIP3      H1             -9.9089926297        4.3803440888      -49.9537117723  TIP3      5431            0.0000000000
     24869      5495  TIP3      H2             -9.9739205582        4.6818248571      -51.4765628924  TIP3      5431            0.0000000000
     24870      5496  TIP3      OH2           -19.4559295823        4.9849339593      -38.9859049808  TIP3      5432            0.0000000000
     24871      5496  TIP3      H1            -19.3967713113        5.6627067833      -38.2938681422  TIP3      5432            0.0000000000
     24872      5496  TIP3      H2            -20.4083945775        4.9678798563      -39.1821663068  TIP3      5432            0.0000000000
     24873      5497  TIP3      OH2           -12.7503769694       10.8946389586      -47.2718333777  TIP3      5433            0.0000000000
     24874      5497  TIP3      H1            -12.3389088336       11.1985218838      -46.4530044499  TIP3      5433            0.0000000000
     24875      5497  TIP3      H2            -13.3014045233       11.6444607709      -47.5229447080  TIP3      5433            0.0000000000
     24876      5498  TIP3      OH2           -18.1652347012       10.8141925414      -37.3637141854  TIP3      5434            0.0000000000
     24877      5498  TIP3      H1            -18.2519690507       10.7599306174      -38.3334353837  TIP3      5434            0.0000000000
     24878      5498  TIP3      H2            -19.0887906625       10.7183587288      -37.0727376731  TIP3      5434            0.0000000000
     24879      5499  TIP3      OH2            -6.7167929257       -4.1049023566      -50.7939051025  TIP3      5435            0.0000000000
     24880      5499  TIP3      H1             -7.6713236047       -4.0078687337      -50.5892463518  TIP3      5435            0.0000000000
     24881      5499  TIP3      H2             -6.5314919732       -3.2692819622      -51.2574141636  TIP3      5435            0.0000000000
     24882      5500  TIP3      OH2           -18.7253458941        4.6345775376      -48.8338492890  TIP3      5436            0.0000000000
     24883      5500  TIP3      H1            -19.0416405637        5.4110577281      -49.3438829579  TIP3      5436            0.0000000000
     24884      5500  TIP3      H2            -19.3612116367        3.9582327791      -49.0746291288  TIP3      5436            0.0000000000
     24885      5501  TIP3      OH2            -5.6235860573       10.2505197559      -52.4739601532  TIP3      5437            0.0000000000
     24886      5501  TIP3      H1             -5.4298303017       11.1880904990      -52.3008712757  TIP3      5437            0.0000000000
     24887      5501  TIP3      H2             -4.7130296636        9.9023432864      -52.4421055011  TIP3      5437            0.0000000000
     24888      5502  TIP3      OH2           -22.6308657928        7.1066820525      -40.1179142595  TIP3      5438            0.0000000000
     24889      5502  TIP3      H1            -23.0062970151        7.0657128299      -41.0001211439  TIP3      5438            0.0000000000
     24890      5502  TIP3      H2            -22.5383507569        6.1538202591      -39.9817431785  TIP3      5438            0.0000000000
     24891      5503  TIP3      OH2           -22.8662470715        9.8552896343      -43.3012961923  TIP3      5439            0.0000000000
     24892      5503  TIP3      H1            -21.9154920191        9.6764493701      -43.2188728253  TIP3      5439            0.0000000000
     24893      5503  TIP3      H2            -23.0136448374       10.5416867205      -42.6345719750  TIP3      5439            0.0000000000
     24894      5504  TIP3      OH2            -4.6902876367       10.5282368750      -37.4824715544  TIP3      5440            0.0000000000
     24895      5504  TIP3      H1             -4.8104759154        9.5675104240      -37.5221793292  TIP3      5440            0.0000000000
     24896      5504  TIP3      H2             -5.5649888695       10.7712275845      -37.1007971966  TIP3      5440            0.0000000000
     24897      5505  TIP3      OH2           -13.7229334834       10.0457080987      -38.6304544424  TIP3      5441            0.0000000000
     24898      5505  TIP3      H1            -13.6763419932       10.8892192985      -38.1219591634  TIP3      5441            0.0000000000
     24899      5505  TIP3      H2            -14.5899522589        9.6716282454      -38.3811172155  TIP3      5441            0.0000000000
     24900      5506  TIP3      OH2           -13.2629857404       13.7792004591      -48.8635656918  TIP3      5442            0.0000000000
     24901      5506  TIP3      H1            -13.3891300882       13.7274734966      -49.8282508536  TIP3      5442            0.0000000000
     24902      5506  TIP3      H2            -13.2737654357       14.7386144930      -48.6838507839  TIP3      5442            0.0000000000
     24903      5507  TIP3      OH2           -19.6252445968       12.6662287756      -47.0359862067  TIP3      5443            0.0000000000
     24904      5507  TIP3      H1            -19.4928224351       12.2590209008      -46.1537214481  TIP3      5443            0.0000000000
     24905      5507  TIP3      H2            -20.4666831987       12.2375791320      -47.2704349584  TIP3      5443            0.0000000000
     24906      5508  TIP3      OH2           -10.2100920538       13.0161971415      -51.8731823363  TIP3      5444            0.0000000000
     24907      5508  TIP3      H1             -9.7372041689       12.2628684077      -52.2982209187  TIP3      5444            0.0000000000
     24908      5508  TIP3      H2            -10.1742706602       12.7667990155      -50.9279308151  TIP3      5444            0.0000000000
     24909      5509  TIP3      OH2           -10.5196591912       12.9511448884      -49.0858871264  TIP3      5445            0.0000000000
     24910      5509  TIP3      H1            -11.4853494404       13.0257805802      -48.9428520992  TIP3      5445            0.0000000000
     24911      5509  TIP3      H2            -10.3124063348       12.1953785520      -48.5167471146  TIP3      5445            0.0000000000
     24912      5510  TIP3      OH2            -7.5370136814        1.9683011228      -37.0256275203  TIP3      5446            0.0000000000
     24913      5510  TIP3      H1             -8.0276966636        2.4100119208      -37.7400056433  TIP3      5446            0.0000000000
     24914      5510  TIP3      H2             -7.5725464394        1.0448245920      -37.3158223454  TIP3      5446            0.0000000000
     24915      5511  TIP3      OH2           -20.3671269053        8.4058287734      -38.9900321884  TIP3      5447            0.0000000000
     24916      5511  TIP3      H1            -20.1874746373        8.0879566631      -38.0792021320  TIP3      5447            0.0000000000
     24917      5511  TIP3      H2            -21.2398368501        8.0656876746      -39.2587642906  TIP3      5447            0.0000000000
     24918      5512  TIP3      OH2           -17.6838458479       -3.0963541644      -43.1787657207  TIP3      5448            0.0000000000
     24919      5512  TIP3      H1            -18.6293881215       -3.2364865106      -43.4131943560  TIP3      5448            0.0000000000
     24920      5512  TIP3      H2            -17.8058170520       -2.3324359933      -42.5795951580  TIP3      5448            0.0000000000
     24921      5513  TIP3      OH2           -13.0446574676       -3.5014566526      -39.7420170919  TIP3      5449            0.0000000000
     24922      5513  TIP3      H1            -12.6633361338       -3.9098892084      -38.9425168804  TIP3      5449            0.0000000000
     24923      5513  TIP3      H2            -14.0184541279       -3.5699546661      -39.5835406457  TIP3      5449            0.0000000000
     24924      5514  TIP3      OH2            -9.7758907744        0.4069853171      -38.7769140435  TIP3      5450            0.0000000000
     24925      5514  TIP3      H1            -10.3772571847        0.1663762215      -38.0320320643  TIP3      5450            0.0000000000
     24926      5514  TIP3      H2             -9.9888692778        1.3201075960      -39.0430111623  TIP3      5450            0.0000000000
     24927      5515  TIP3      OH2            -9.0194034638        5.2384040725      -52.8458697875  TIP3      5451            0.0000000000
     24928      5515  TIP3      H1             -9.0742477633        5.0225542484      -53.8061361149  TIP3      5451            0.0000000000
     24929      5515  TIP3      H2             -8.1521743285        5.6762337935      -52.8419132195  TIP3      5451            0.0000000000
     24930      5516  TIP3      OH2           -13.4336580644       -0.8525808657      -52.4077336131  TIP3      5452            0.0000000000
     24931      5516  TIP3      H1            -13.7523981107       -0.9419077666      -51.4947343468  TIP3      5452            0.0000000000
     24932      5516  TIP3      H2            -13.7224549502       -1.7261261955      -52.7391807819  TIP3      5452            0.0000000000
     24933      5517  TIP3      OH2           -17.6034950424        1.8556114029      -41.7832326039  TIP3      5453            0.0000000000
     24934      5517  TIP3      H1            -18.3264661973        1.8548924883      -41.1335388774  TIP3      5453            0.0000000000
     24935      5517  TIP3      H2            -17.6747696346        2.7583878144      -42.1719969541  TIP3      5453            0.0000000000
     24936      5518  TIP3      OH2           -17.6064646275        1.9163076012      -46.9428194455  TIP3      5454            0.0000000000
     24937      5518  TIP3      H1            -18.5676287118        1.7275945411      -47.0664594082  TIP3      5454            0.0000000000
     24938      5518  TIP3      H2            -17.2808191044        1.6459618606      -47.8240112091  TIP3      5454            0.0000000000
     24939      5519  TIP3      OH2           -12.0977883241        2.4767445507      -48.1933950557  TIP3      5455            0.0000000000
     24940      5519  TIP3      H1            -12.4961745840        3.2956060762      -48.5604871361  TIP3      5455            0.0000000000
     24941      5519  TIP3      H2            -11.4344377940        2.2706613753      -48.8692542586  TIP3      5455            0.0000000000
     24942      5520  TIP3      OH2           -13.0910658896        2.6789238767      -36.7621318278  TIP3      5456            0.0000000000
     24943      5520  TIP3      H1            -13.5874501769        1.8824222585      -36.4568771209  TIP3      5456            0.0000000000
     24944      5520  TIP3      H2            -12.2479833517        2.5819886732      -36.2884424033  TIP3      5456            0.0000000000
     24945      5521  TIP3      OH2           -11.4734091287        2.2573338605      -45.4228683735  TIP3      5457            0.0000000000
     24946      5521  TIP3      H1            -11.4289220401        2.6258685943      -46.3131900175  TIP3      5457            0.0000000000
     24947      5521  TIP3      H2            -11.0663626734        1.3666068012      -45.5663909466  TIP3      5457            0.0000000000
     24948      5522  TIP3      OH2           -20.0836035252        2.1201270161      -40.1349027744  TIP3      5458            0.0000000000
     24949      5522  TIP3      H1            -19.8935984872        2.4462060507      -39.2456241176  TIP3      5458            0.0000000000
     24950      5522  TIP3      H2            -20.3973442493        1.2189776076      -39.9387987708  TIP3      5458            0.0000000000
     24951      5523  TIP3      OH2           -16.6532163109       -0.5214458931      -53.2866803654  TIP3      5459            0.0000000000
     24952      5523  TIP3      H1            -17.1084925409       -0.9355454986      -52.5244513982  TIP3      5459            0.0000000000
     24953      5523  TIP3      H2            -17.3703664911       -0.0883103295      -53.7646880616  TIP3      5459            0.0000000000
     24954      5524  TIP3      OH2           -22.1394211207       -0.7010462741      -46.4025816546  TIP3      5460            0.0000000000
     24955      5524  TIP3      H1            -22.3935166282       -0.9279144643      -45.4971196689  TIP3      5460            0.0000000000
     24956      5524  TIP3      H2            -22.7247798540       -1.2667085566      -46.9268978636  TIP3      5460            0.0000000000
     24957      5525  TIP3      OH2           -22.0260936114        0.0400338861      -50.6538524879  TIP3      5461            0.0000000000
     24958      5525  TIP3      H1            -21.4865835154        0.4815894010      -51.3472486031  TIP3      5461            0.0000000000
     24959      5525  TIP3      H2            -22.7502635466        0.6424013161      -50.5722810909  TIP3      5461            0.0000000000
     24960      5526  TIP3      OH2           -11.9114309573        3.5433437612      -40.7947434113  TIP3      5462            0.0000000000
     24961      5526  TIP3      H1            -11.5186753198        2.8471466195      -41.3813197565  TIP3      5462            0.0000000000
     24962      5526  TIP3      H2            -12.3941878312        3.0002397968      -40.1481045994  TIP3      5462            0.0000000000
     24963      5527  TIP3      OH2           -15.1423904248       -0.5062388593      -45.9542941831  TIP3      5463            0.0000000000
     24964      5527  TIP3      H1            -16.0593705321       -0.4437413633      -45.6172834146  TIP3      5463            0.0000000000
     24965      5527  TIP3      H2            -14.6008058910       -0.6677778843      -45.1568003503  TIP3      5463            0.0000000000
     24966      5528  TIP3      OH2           -20.1492826971        1.1246023240      -47.1710703353  TIP3      5464            0.0000000000
     24967      5528  TIP3      H1            -21.0992083784        1.2208480335      -47.3894566542  TIP3      5464            0.0000000000
     24968      5528  TIP3      H2            -20.0182027775        0.2068624867      -47.4704499143  TIP3      5464            0.0000000000
     24969      5529  TIP3      OH2           -16.6395969792        1.1181816012      -49.4412381146  TIP3      5465            0.0000000000
     24970      5529  TIP3      H1            -15.6810517037        1.2343819212      -49.2867908026  TIP3      5465            0.0000000000
     24971      5529  TIP3      H2            -16.8870605832        1.8013898459      -50.0926950158  TIP3      5465            0.0000000000
     24972      5530  TIP3      OH2           -10.8490252021       -1.7881291222      -42.4542782030  TIP3      5466            0.0000000000
     24973      5530  TIP3      H1            -11.4237251569       -1.1942253656      -41.9464458363  TIP3      5466            0.0000000000
     24974      5530  TIP3      H2            -10.9779550526       -1.4514426292      -43.3714982214  TIP3      5466            0.0000000000
     24975      5531  TIP3      OH2           -17.9399516812        2.3000759638      -51.8789612580  TIP3      5467            0.0000000000
     24976      5531  TIP3      H1            -18.4405591610        1.8905024183      -52.6009358070  TIP3      5467            0.0000000000
     24977      5531  TIP3      H2            -17.1094317502        2.5093846639      -52.3370749448  TIP3      5467            0.0000000000
     24978      5532  TIP3      OH2            -7.4988069034       14.3852997215      -36.3621428415  TIP3      5468            0.0000000000
     24979      5532  TIP3      H1             -7.2502789259       14.7496624373      -37.2357294504  TIP3      5468            0.0000000000
     24980      5532  TIP3      H2             -6.7570405640       14.7275409618      -35.8377423897  TIP3      5468            0.0000000000
     24981      5533  TIP3      OH2           -19.8584593927        6.8372872247      -36.7874079266  TIP3      5469            0.0000000000
     24982      5533  TIP3      H1            -19.0407565066        7.0600241514      -36.2897584819  TIP3      5469            0.0000000000
     24983      5533  TIP3      H2            -20.4820620849        6.9846651892      -36.0421775647  TIP3      5469            0.0000000000
     24984      5534  TIP3      OH2           -13.9130014643        2.2616495294      -44.0558734775  TIP3      5470            0.0000000000
     24985      5534  TIP3      H1            -13.2138567571        1.8306908375      -44.5783104289  TIP3      5470            0.0000000000
     24986      5534  TIP3      H2            -13.9345240679        1.7034455693      -43.2718153441  TIP3      5470            0.0000000000
     24987      5535  TIP3      OH2           -18.7770716732       -1.6154152468      -47.5638188579  TIP3      5471            0.0000000000
     24988      5535  TIP3      H1            -19.1875934673       -2.4861602395      -47.6606213280  TIP3      5471            0.0000000000
     24989      5535  TIP3      H2            -18.0348885980       -1.6449227332      -48.1845222849  TIP3      5471            0.0000000000
     24990      5536  TIP3      OH2           -15.1729534037        0.5879515843      -41.6266475966  TIP3      5472            0.0000000000
     24991      5536  TIP3      H1            -15.9909168516        1.1231152027      -41.5708006724  TIP3      5472            0.0000000000
     24992      5536  TIP3      H2            -14.6162907301        0.9639323750      -40.9227377081  TIP3      5472            0.0000000000
     24993      5537  TIP3      OH2           -14.5870890453        6.8005250136      -49.9300832925  TIP3      5473            0.0000000000
     24994      5537  TIP3      H1            -15.3910061743        6.3472852245      -50.2761027626  TIP3      5473            0.0000000000
     24995      5537  TIP3      H2            -14.8417522574        6.9719320649      -49.0005115584  TIP3      5473            0.0000000000
     24996      5538  TIP3      OH2            -7.3581696266        6.0529868556      -41.1384992753  TIP3      5474            0.0000000000
     24997      5538  TIP3      H1             -6.8253956164        6.5388411398      -41.7974352961  TIP3      5474            0.0000000000
     24998      5538  TIP3      H2             -8.2290470038        6.0551800941      -41.5836989433  TIP3      5474            0.0000000000
     24999      5539  TIP3      OH2           -10.7874154686       -0.3876373666      -51.7354314777  TIP3      5475            0.0000000000
     25000      5539  TIP3      H1            -11.7215777271       -0.2022647395      -51.9410500457  TIP3      5475            0.0000000000
     25001      5539  TIP3      H2            -10.4268563841        0.4585429205      -51.3950408607  TIP3      5475            0.0000000000
     25002      5540  TIP3      OH2           -13.0879140707        7.1285911613      -38.6900080975  TIP3      5476            0.0000000000
     25003      5540  TIP3      H1            -13.4431155728        6.6609909190      -37.9257752520  TIP3      5476            0.0000000000
     25004      5540  TIP3      H2            -13.3900127082        8.0323978825      -38.5542574113  TIP3      5476            0.0000000000
     25005      5541  TIP3      OH2           -10.0287653418        1.5838096869      -50.2003703237  TIP3      5477            0.0000000000
     25006      5541  TIP3      H1             -9.1834756323        1.4305024845      -49.7223608202  TIP3      5477            0.0000000000
     25007      5541  TIP3      H2             -9.8799626086        2.4136938149      -50.6761671468  TIP3      5477            0.0000000000
     25008      5542  TIP3      OH2           -19.4679808937        6.2514073994      -44.1298162264  TIP3      5478            0.0000000000
     25009      5542  TIP3      H1            -18.8596448011        6.1497224007      -44.8854823915  TIP3      5478            0.0000000000
     25010      5542  TIP3      H2            -19.3935725997        5.3903992020      -43.6905088454  TIP3      5478            0.0000000000
     25011      5543  TIP3      OH2           -12.5090456777        8.2753137363      -50.9064934677  TIP3      5479            0.0000000000
     25012      5543  TIP3      H1            -12.8538248798        9.1271790331      -50.5637376046  TIP3      5479            0.0000000000
     25013      5543  TIP3      H2            -13.2333057301        7.6553006980      -50.6730421555  TIP3      5479            0.0000000000
     25014      5544  TIP3      OH2           -22.1437910193        4.4686911558      -38.8893061759  TIP3      5480            0.0000000000
     25015      5544  TIP3      H1            -22.0768716221        4.0149723946      -38.0257248697  TIP3      5480            0.0000000000
     25016      5544  TIP3      H2            -22.9855549584        4.0637525801      -39.2173796780  TIP3      5480            0.0000000000
     25017      5545  TIP3      OH2           -15.4736804334        4.1789508136      -36.7248962240  TIP3      5481            0.0000000000
     25018      5545  TIP3      H1            -15.8085638352        3.8239873117      -37.5635516671  TIP3      5481            0.0000000000
     25019      5545  TIP3      H2            -14.5579394108        3.8264478857      -36.7307163158  TIP3      5481            0.0000000000
     25020      5546  TIP3      OH2           -10.7572851190        9.5362046679      -38.7125217496  TIP3      5482            0.0000000000
     25021      5546  TIP3      H1            -11.6820973232        9.6872753632      -38.9765166170  TIP3      5482            0.0000000000
     25022      5546  TIP3      H2            -10.8190965440        9.8313089242      -37.7859021425  TIP3      5482            0.0000000000
     25023      5547  TIP3      OH2            -5.1183271592        1.6679682328      -50.3665381274  TIP3      5483            0.0000000000
     25024      5547  TIP3      H1             -5.6890458051        1.4184771514      -51.1212944877  TIP3      5483            0.0000000000
     25025      5547  TIP3      H2             -5.0370100717        2.6250276411      -50.5823626344  TIP3      5483            0.0000000000
     25026      5548  TIP3      OH2            -5.1352268201        7.5560852588      -37.5711008378  TIP3      5484            0.0000000000
     25027      5548  TIP3      H1             -6.0311824175        7.7798754269      -37.9263601964  TIP3      5484            0.0000000000
     25028      5548  TIP3      H2             -4.5987450141        7.4916928487      -38.3931576604  TIP3      5484            0.0000000000
     25029      5549  TIP3      OH2            -6.8922958883       10.5075436845      -49.9957112140  TIP3      5485            0.0000000000
     25030      5549  TIP3      H1             -7.2026231815        9.6694321937      -49.6309597495  TIP3      5485            0.0000000000
     25031      5549  TIP3      H2             -6.5005254935       10.2691549321      -50.8517563313  TIP3      5485            0.0000000000
     25032      5550  TIP3      OH2            -9.6079465592        5.3540262718      -42.8616749470  TIP3      5486            0.0000000000
     25033      5550  TIP3      H1            -10.5431674144        5.1338092221      -42.9945632114  TIP3      5486            0.0000000000
     25034      5550  TIP3      H2             -9.1795083289        4.6020219878      -43.3194666926  TIP3      5486            0.0000000000
     25035      5551  TIP3      OH2           -17.1013574623        9.6916013782      -46.7273150716  TIP3      5487            0.0000000000
     25036      5551  TIP3      H1            -16.6049461680       10.4942607425      -46.9541154207  TIP3      5487            0.0000000000
     25037      5551  TIP3      H2            -17.9706386201        9.8995071145      -47.0978383786  TIP3      5487            0.0000000000
     25038      5552  TIP3      OH2           -21.4796722692        4.5492046006      -52.1862785672  TIP3      5488            0.0000000000
     25039      5552  TIP3      H1            -20.7727270396        5.1237860150      -51.8241489740  TIP3      5488            0.0000000000
     25040      5552  TIP3      H2            -22.2535792633        5.0214518695      -51.8588318275  TIP3      5488            0.0000000000
     25041      5553  TIP3      OH2           -15.7156081432        7.3486626069      -47.2758124443  TIP3      5489            0.0000000000
     25042      5553  TIP3      H1            -16.0453510456        8.2582263427      -47.1487982507  TIP3      5489            0.0000000000
     25043      5553  TIP3      H2            -16.4005068178        6.8277565143      -46.8092347411  TIP3      5489            0.0000000000
     25044      5554  TIP3      OH2           -15.2709970415       11.5427869168      -40.7871441133  TIP3      5490            0.0000000000
     25045      5554  TIP3      H1            -14.7665430339       12.3070232646      -41.1116488948  TIP3      5490            0.0000000000
     25046      5554  TIP3      H2            -14.6276218964       11.1653715401      -40.1590872798  TIP3      5490            0.0000000000
     25047      5555  TIP3      OH2           -17.0092812261       12.3111803588      -47.7456187939  TIP3      5491            0.0000000000
     25048      5555  TIP3      H1            -17.9739955212       12.4474310826      -47.5874528229  TIP3      5491            0.0000000000
     25049      5555  TIP3      H2            -16.6390179557       13.1506096126      -47.4143820918  TIP3      5491            0.0000000000
     25050      5556  TIP3      OH2           -11.7640374923        7.5032318223      -41.2230626638  TIP3      5492            0.0000000000
     25051      5556  TIP3      H1            -12.0357165374        7.3151951294      -40.3001866488  TIP3      5492            0.0000000000
     25052      5556  TIP3      H2            -11.1085753963        6.8032767014      -41.3947762825  TIP3      5492            0.0000000000
     25053      5557  TIP3      OH2            -9.3412355476        8.6281498151      -52.1249745966  TIP3      5493            0.0000000000
     25054      5557  TIP3      H1             -9.0573925089        8.1298710918      -51.3324478794  TIP3      5493            0.0000000000
     25055      5557  TIP3      H2            -10.2912771235        8.4205193209      -52.0718048277  TIP3      5493            0.0000000000
     25056      5558  TIP3      OH2            -8.8773989735       12.0991791819      -38.7358125527  TIP3      5494            0.0000000000
     25057      5558  TIP3      H1             -9.5902405315       11.6108814705      -39.1891669237  TIP3      5494            0.0000000000
     25058      5558  TIP3      H2             -8.7136489660       12.7941330676      -39.4096724631  TIP3      5494            0.0000000000
     25059      5559  TIP3      OH2            -4.9141026889       12.9476137958      -51.8647738286  TIP3      5495            0.0000000000
     25060      5559  TIP3      H1             -4.2382145766       13.6169814967      -52.0884804126  TIP3      5495            0.0000000000
     25061      5559  TIP3      H2             -5.6304519600       13.5536450049      -51.5711292857  TIP3      5495            0.0000000000
     25062      5560  TIP3      OH2           -20.8107485931       -0.6680786568      -39.4103354134  TIP3      5496            0.0000000000
     25063      5560  TIP3      H1            -21.6826470178       -0.2547035139      -39.2299084266  TIP3      5496            0.0000000000
     25064      5560  TIP3      H2            -20.8989257781       -1.4870640630      -38.8910359217  TIP3      5496            0.0000000000
     25065      5561  TIP3      OH2            -8.6065333883        7.2385474370      -49.8716129524  TIP3      5497            0.0000000000
     25066      5561  TIP3      H1             -8.8433175144        6.4388704949      -49.3564147223  TIP3      5497            0.0000000000
     25067      5561  TIP3      H2             -7.6456101419        7.2580484093      -49.7212739641  TIP3      5497            0.0000000000
     25068      5562  TIP3      OH2           -21.2542184388       11.0630721576      -40.8411908679  TIP3      5498            0.0000000000
     25069      5562  TIP3      H1            -20.8022649238       10.2154614952      -40.9267776094  TIP3      5498            0.0000000000
     25070      5562  TIP3      H2            -20.8525534915       11.4373436806      -40.0515145092  TIP3      5498            0.0000000000
     25071      5563  TIP3      OH2           -15.2184295642        9.6795553720      -53.6036532560  TIP3      5499            0.0000000000
     25072      5563  TIP3      H1            -15.1592743726        8.9264013068      -54.2145478529  TIP3      5499            0.0000000000
     25073      5563  TIP3      H2            -15.7203003484        9.2536761307      -52.8758367258  TIP3      5499            0.0000000000
     25074      5564  TIP3      OH2           -16.5243916216        9.1869780018      -51.1411856813  TIP3      5500            0.0000000000
     25075      5564  TIP3      H1            -16.1558891007        8.6763138702      -50.4078027681  TIP3      5500            0.0000000000
     25076      5564  TIP3      H2            -16.4198226211       10.1125357337      -50.8279054179  TIP3      5500            0.0000000000
     25077      5565  TIP3      OH2           -19.9171655489        6.4283377931      -50.7129852193  TIP3      5501            0.0000000000
     25078      5565  TIP3      H1            -20.6474180426        6.8640582799      -50.2099134379  TIP3      5501            0.0000000000
     25079      5565  TIP3      H2            -19.4050438981        7.2149776199      -50.9797645896  TIP3      5501            0.0000000000
     25080      5566  TIP3      OH2           -12.1389603386       -0.8142502462      -40.2786462833  TIP3      5502            0.0000000000
     25081      5566  TIP3      H1            -11.3258692241       -0.8109560832      -39.7638085244  TIP3      5502            0.0000000000
     25082      5566  TIP3      H2            -12.4474265897       -1.7342818802      -40.1537354561  TIP3      5502            0.0000000000
     25083      5567  TIP3      OH2           -11.4034028390       -1.3933468378      -49.3371894822  TIP3      5503            0.0000000000
     25084      5567  TIP3      H1            -11.1476056102       -0.8849555245      -50.1310943705  TIP3      5503            0.0000000000
     25085      5567  TIP3      H2            -10.8609321505       -0.9376687987      -48.6620954469  TIP3      5503            0.0000000000
     25086      5568  TIP3      OH2           -13.6720607614       10.8470256989      -50.4930603159  TIP3      5504            0.0000000000
     25087      5568  TIP3      H1            -14.4925253986       11.3743564684      -50.4028908576  TIP3      5504            0.0000000000
     25088      5568  TIP3      H2            -13.1248612671       11.4230009771      -51.0449795425  TIP3      5504            0.0000000000
     25089      5569  TIP3      OH2           -14.1310319698        0.4481497473      -48.4602699562  TIP3      5505            0.0000000000
     25090      5569  TIP3      H1            -13.3496855348        1.0321919131      -48.3824292283  TIP3      5505            0.0000000000
     25091      5569  TIP3      H2            -14.3904720241        0.2834622051      -47.5304365808  TIP3      5505            0.0000000000
     25092      5570  TIP3      OH2           -13.5671359879        1.4815685012      -39.2481700688  TIP3      5506            0.0000000000
     25093      5570  TIP3      H1            -13.4807992604        2.0190101615      -38.4356961112  TIP3      5506            0.0000000000
     25094      5570  TIP3      H2            -12.9137918906        0.7701381915      -39.1731768934  TIP3      5506            0.0000000000
     25095      5571  TIP3      OH2           -13.3003344194       -2.5215701127      -47.6049816699  TIP3      5507            0.0000000000
     25096      5571  TIP3      H1            -13.5733197029       -1.8569548369      -46.9450808951  TIP3      5507            0.0000000000
     25097      5571  TIP3      H2            -12.5876942626       -1.9904526677      -48.0369955879  TIP3      5507            0.0000000000
     25098      5572  TIP3      OH2           -16.2568579817       11.8662850906      -50.4490685484  TIP3      5508            0.0000000000
     25099      5572  TIP3      H1            -16.1830156196       12.6744575669      -51.0145744619  TIP3      5508            0.0000000000
     25100      5572  TIP3      H2            -16.5512565541       12.2512598746      -49.5919432364  TIP3      5508            0.0000000000
     25101      5573  TIP3      OH2           -17.6151438685       -1.3817389761      -50.8813216706  TIP3      5509            0.0000000000
     25102      5573  TIP3      H1            -17.6774543004       -0.5043660811      -50.4554007717  TIP3      5509            0.0000000000
     25103      5573  TIP3      H2            -16.6989557396       -1.6233571368      -50.6311651266  TIP3      5509            0.0000000000
     25104      5574  TIP3      OH2            -7.4130080710       -0.6715451492      -38.4199790142  TIP3      5510            0.0000000000
     25105      5574  TIP3      H1             -8.3332120944       -0.3340359178      -38.5490226222  TIP3      5510            0.0000000000
     25106      5574  TIP3      H2             -7.1229590881       -0.7083860670      -39.3500317024  TIP3      5510            0.0000000000
     25107      5575  TIP3      OH2            -8.7878413397        3.1320547233      -44.4359807256  TIP3      5511            0.0000000000
     25108      5575  TIP3      H1             -9.5870005789        2.6431508056      -44.6825396780  TIP3      5511            0.0000000000
     25109      5575  TIP3      H2             -8.2876095081        2.4353971689      -43.9434903211  TIP3      5511            0.0000000000
     25110      5576  TIP3      OH2           -19.3702321110        9.0591918040      -51.8450822402  TIP3      5512            0.0000000000
     25111      5576  TIP3      H1            -18.6842240383        9.6506433364      -51.5074487076  TIP3      5512            0.0000000000
     25112      5576  TIP3      H2            -18.8727323502        8.5537001217      -52.5116533935  TIP3      5512            0.0000000000
     25113      5577  TIP3      OH2           -21.0884766183        1.7513820392      -52.7176305513  TIP3      5513            0.0000000000
     25114      5577  TIP3      H1            -21.1055094673        2.6859804294      -52.4547715553  TIP3      5513            0.0000000000
     25115      5577  TIP3      H2            -21.9666895987        1.5447437392      -53.0424800308  TIP3      5513            0.0000000000
     25116      5578  TIP3      OH2            -7.7118570901       12.4024068585      -42.7672090430  TIP3      5514            0.0000000000
     25117      5578  TIP3      H1             -7.7873014793       13.0738567310      -43.4711151326  TIP3      5514            0.0000000000
     25118      5578  TIP3      H2             -6.7461350965       12.4344956096      -42.5939735820  TIP3      5514            0.0000000000
     25119      5579  TIP3      OH2           -20.1506442788       -3.5991651765      -43.9496639562  TIP3      5515            0.0000000000
     25120      5579  TIP3      H1            -20.4497368385       -3.4576791957      -44.8754367449  TIP3      5515            0.0000000000
     25121      5579  TIP3      H2            -20.7368623021       -4.3415442099      -43.6773948293  TIP3      5515            0.0000000000
     25122      5580  TIP3      OH2           -21.2762812129       10.4822163247      -47.7095599378  TIP3      5516            0.0000000000
     25123      5580  TIP3      H1            -22.1346400486       10.8935424052      -47.8462819907  TIP3      5516            0.0000000000
     25124      5580  TIP3      H2            -20.8319798590       10.8003185228      -48.5031164196  TIP3      5516            0.0000000000
     25125      5581  TIP3      OH2           -22.0108291962       13.0625423105      -36.5701510738  TIP3      5517            0.0000000000
     25126      5581  TIP3      H1            -21.4719666274       12.9463463776      -35.7611245900  TIP3      5517            0.0000000000
     25127      5581  TIP3      H2            -22.4729621758       12.2199071178      -36.6055731303  TIP3      5517            0.0000000000
     25128      5582  TIP3      OH2           -17.3721269904       11.9740970782      -34.9364410603  TIP3      5518            0.0000000000
     25129      5582  TIP3      H1            -16.6154044978       11.4835774362      -34.5917542708  TIP3      5518            0.0000000000
     25130      5582  TIP3      H2            -17.4284369666       11.6677592124      -35.8607003523  TIP3      5518            0.0000000000
     25131      5583  TIP3      OH2           -13.2217066418       11.5250304279      -53.4881867792  TIP3      5519            0.0000000000
     25132      5583  TIP3      H1            -13.9349302482       10.8667424286      -53.3162325389  TIP3      5519            0.0000000000
     25133      5583  TIP3      H2            -12.5192536075       10.9155340792      -53.7587240881  TIP3      5519            0.0000000000
     25134      5584  TIP3      OH2           -10.9324670662       10.4089858212      -36.1074259334  TIP3      5520            0.0000000000
     25135      5584  TIP3      H1            -11.2456677558        9.5042080304      -35.8829668224  TIP3      5520            0.0000000000
     25136      5584  TIP3      H2            -10.1249166956       10.4714671098      -35.5727699846  TIP3      5520            0.0000000000
     25137      5585  TIP3      OH2            -8.6841741035       11.2390293930      -53.3251743702  TIP3      5521            0.0000000000
     25138      5585  TIP3      H1             -8.3975781232       10.4710187361      -52.8038066312  TIP3      5521            0.0000000000
     25139      5585  TIP3      H2             -7.9161108902       11.4340709610      -53.8798020212  TIP3      5521            0.0000000000
     25140      5586  TIP3      OH2           -21.9846259105        6.8802366252      -35.3257882257  TIP3      5522            0.0000000000
     25141      5586  TIP3      H1            -21.9509261595        5.9154332415      -35.4505134300  TIP3      5522            0.0000000000
     25142      5586  TIP3      H2            -22.9078101861        7.1020737083      -35.5782171593  TIP3      5522            0.0000000000
     25143      5587  TIP3      OH2           -17.8094604051        7.1951706330      -53.5408952293  TIP3      5523            0.0000000000
     25144      5587  TIP3      H1            -17.6724029006        6.4571994829      -52.9284703307  TIP3      5523            0.0000000000
     25145      5587  TIP3      H2            -17.0361970965        7.0803349532      -54.1270709207  TIP3      5523            0.0000000000
     25146      5588  TIP3      OH2           -15.4548434842        6.8482283772      -36.1378833504  TIP3      5524            0.0000000000
     25147      5588  TIP3      H1            -15.7854233758        7.1819800159      -36.9956639992  TIP3      5524            0.0000000000
     25148      5588  TIP3      H2            -15.4021643924        5.8681037917      -36.2637109799  TIP3      5524            0.0000000000
     25149      5589  TIP3      OH2           -12.3578760541        8.3020380749      -53.7264159061  TIP3      5525            0.0000000000
     25150      5589  TIP3      H1            -12.6362786110        8.3663368198      -52.7992452483  TIP3      5525            0.0000000000
     25151      5589  TIP3      H2            -12.5445939057        7.3486423424      -53.8952891438  TIP3      5525            0.0000000000
     25152      5590  TIP3      OH2            -9.7757021052        6.6718551535      -38.7360769761  TIP3      5526            0.0000000000
     25153      5590  TIP3      H1             -8.9668605855        7.2273487714      -38.7818722033  TIP3      5526            0.0000000000
     25154      5590  TIP3      H2            -10.4531301299        7.3660108763      -38.7305408972  TIP3      5526            0.0000000000
     25155      5591  TIP3      OH2           -21.4371674686        3.9928258377      -36.1270729876  TIP3      5527            0.0000000000
     25156      5591  TIP3      H1            -20.7635184522        3.2944807005      -36.2276568700  TIP3      5527            0.0000000000
     25157      5591  TIP3      H2            -21.3732732286        4.1216838980      -35.1616743031  TIP3      5527            0.0000000000
     25158      5592  TIP3      OH2           -16.5818179446        5.2208240934      -51.0273621124  TIP3      5528            0.0000000000
     25159      5592  TIP3      H1            -17.1285298811        4.6673985431      -50.4472834188  TIP3      5528            0.0000000000
     25160      5592  TIP3      H2            -16.2676005237        4.5661092682      -51.6910182756  TIP3      5528            0.0000000000
     25161      5593  TIP3      OH2           -17.2927344136        2.9903344810      -38.8098567046  TIP3      5529            0.0000000000
     25162      5593  TIP3      H1            -17.9040207120        3.6864524349      -38.5302504783  TIP3      5529            0.0000000000
     25163      5593  TIP3      H2            -16.9076508338        3.3941644732      -39.6053030858  TIP3      5529            0.0000000000
     25164      5594  TIP3      OH2           -15.5522189874        3.4597409270      -52.8784092245  TIP3      5530            0.0000000000
     25165      5594  TIP3      H1            -15.6839405520        3.3931199425      -53.8422301111  TIP3      5530            0.0000000000
     25166      5594  TIP3      H2            -14.5740241788        3.4744380179      -52.7933501192  TIP3      5530            0.0000000000
     25167      5595  TIP3      OH2           -12.2476241905        5.6112825696      -35.4211772108  TIP3      5531            0.0000000000
     25168      5595  TIP3      H1            -11.3025364037        5.5467166116      -35.6041575815  TIP3      5531            0.0000000000
     25169      5595  TIP3      H2            -12.4320145765        4.8297214025      -34.8733159447  TIP3      5531            0.0000000000
     25170      5596  TIP3      OH2            -6.2379367109        5.7561583416      -53.4690256572  TIP3      5532            0.0000000000
     25171      5596  TIP3      H1             -6.3797600765        5.4010604511      -54.3615675100  TIP3      5532            0.0000000000
     25172      5596  TIP3      H2             -6.1258316576        6.7215310535      -53.6430723822  TIP3      5532            0.0000000000
     25173      5597  TIP3      OH2           -16.9062348811        0.4135569145      -37.7500974974  TIP3      5533            0.0000000000
     25174      5597  TIP3      H1            -16.8332076475       -0.2947201345      -38.4166165004  TIP3      5533            0.0000000000
     25175      5597  TIP3      H2            -16.9976610635        1.2178260017      -38.2953042255  TIP3      5533            0.0000000000
     25176      5598  TIP3      OH2           -16.5134468145       -1.2332046224      -40.1714818647  TIP3      5534            0.0000000000
     25177      5598  TIP3      H1            -16.0121616839       -0.7486225463      -40.8740765648  TIP3      5534            0.0000000000
     25178      5598  TIP3      H2            -17.4134963135       -1.2868312736      -40.5648996599  TIP3      5534            0.0000000000
     25179      5599  TIP3      OH2           -14.9874165743        4.3110305613      -39.9328854347  TIP3      5535            0.0000000000
     25180      5599  TIP3      H1            -14.2371544649        4.1235490795      -40.5067860752  TIP3      5535            0.0000000000
     25181      5599  TIP3      H2            -15.3712601608        5.1244491736      -40.3000319116  TIP3      5535            0.0000000000
     25182      5600  TIP3      OH2           -10.6023807500        2.0016344463      -34.9969099763  TIP3      5536            0.0000000000
     25183      5600  TIP3      H1            -10.3304026378        1.0765867531      -35.0934958617  TIP3      5536            0.0000000000
     25184      5600  TIP3      H2             -9.7515872021        2.4669532359      -34.9426184999  TIP3      5536            0.0000000000
     25185      5601  TIP3      OH2            -9.2395141127        4.8242437660      -36.7675258100  TIP3      5537            0.0000000000
     25186      5601  TIP3      H1             -9.5060278577        5.5262766332      -37.4012156638  TIP3      5537            0.0000000000
     25187      5601  TIP3      H2             -8.2835836209        4.7886285682      -36.9613774652  TIP3      5537            0.0000000000
     25188      5602  TIP3      OH2           -18.5057323145        1.6869735962      -35.8422505889  TIP3      5538            0.0000000000
     25189      5602  TIP3      H1            -19.2263348821        1.0372012577      -35.9508650046  TIP3      5538            0.0000000000
     25190      5602  TIP3      H2            -17.8468884147        1.3063358068      -36.4512430401  TIP3      5538            0.0000000000
     25191      5603  TIP3      OH2           -15.7390540968       -3.7921054605      -39.8007385147  TIP3      5539            0.0000000000
     25192      5603  TIP3      H1            -15.9301260707       -2.8313328140      -39.9069743901  TIP3      5539            0.0000000000
     25193      5603  TIP3      H2            -16.4886672099       -4.1772619352      -40.2855838244  TIP3      5539            0.0000000000
     25194      5604  TIP3      OH2           -14.4545140290        0.5395574790      -36.1329106867  TIP3      5540            0.0000000000
     25195      5604  TIP3      H1            -14.8031624691        0.3004971489      -35.2507595935  TIP3      5540            0.0000000000
     25196      5604  TIP3      H2            -15.2215713566        0.3348648874      -36.6976755048  TIP3      5540            0.0000000000
     25197      5605  TIP3      OH2           -11.7420005946       -0.2939381394      -37.0043535769  TIP3      5541            0.0000000000
     25198      5605  TIP3      H1            -12.7092007639       -0.2461784105      -36.9346747971  TIP3      5541            0.0000000000
     25199      5605  TIP3      H2            -11.5020603977       -0.9517452009      -36.3202553176  TIP3      5541            0.0000000000
     25200      5606  TIP3      OH2           -10.1858431971       -1.7005205952      -35.1838005789  TIP3      5542            0.0000000000
     25201      5606  TIP3      H1            -10.2020345280       -2.6782018825      -35.1347785902  TIP3      5542            0.0000000000
     25202      5606  TIP3      H2            -10.3935395146       -1.4039581313      -34.2773470282  TIP3      5542            0.0000000000
     25203      5607  TIP3      OH2           -20.2517328691       -0.4094663303      -35.9775152836  TIP3      5543            0.0000000000
     25204      5607  TIP3      H1            -20.1427287825       -1.1452132013      -36.6045316426  TIP3      5543            0.0000000000
     25205      5607  TIP3      H2            -20.4476395406       -0.9004270442      -35.1532390019  TIP3      5543            0.0000000000
     25206      5608  TIP3      OH2           -15.5199835591       -4.3654968416      -37.0941596188  TIP3      5544            0.0000000000
     25207      5608  TIP3      H1            -14.8537065283       -5.0821329473      -37.0940769457  TIP3      5544            0.0000000000
     25208      5608  TIP3      H2            -15.6509730370       -4.2691260153      -38.0595908321  TIP3      5544            0.0000000000
     25209      5609  TIP3      OH2           -15.1662551944       -2.7839198598      -34.9325816317  TIP3      5545            0.0000000000
     25210      5609  TIP3      H1            -15.3517142012       -3.3026914762      -35.7549033125  TIP3      5545            0.0000000000
     25211      5609  TIP3      H2            -15.7538434869       -2.0098888153      -35.0420488161  TIP3      5545            0.0000000000
     25212      5610  TIP3      OH2           -15.7115511987       14.1528564584      -51.7695720015  TIP3      5546            0.0000000000
     25213      5610  TIP3      H1            -14.7417990083       14.1982817084      -51.7115139481  TIP3      5546            0.0000000000
     25214      5610  TIP3      H2            -15.8357267300       14.7128112398      -52.5474961391  TIP3      5546            0.0000000000
     25215      5611  TIP3      OH2           -22.0484635256        8.7900516728      -52.3676718573  TIP3      5547            0.0000000000
     25216      5611  TIP3      H1            -21.1004477103        8.8174954969      -52.1150938892  TIP3      5547            0.0000000000
     25217      5611  TIP3      H2            -22.0572326223        8.1017689348      -53.0589099395  TIP3      5547            0.0000000000
     25218      5612  TIP3      OH2            23.5902468714       13.8570927329      -47.6066691988  TIP3      5548            0.0000000000
     25219      5612  TIP3      H1             22.6707623147       13.6611262919      -47.8021037296  TIP3      5548            0.0000000000
     25220      5612  TIP3      H2             23.7180079564       13.4400577167      -46.7222345855  TIP3      5548            0.0000000000
     25221      5613  TIP3      OH2           -22.5221027578       12.2491690664      -45.5156537539  TIP3      5549            0.0000000000
     25222      5613  TIP3      H1            -22.8154468681       11.3596050851      -45.2830510402  TIP3      5549            0.0000000000
     25223      5613  TIP3      H2            -22.2529382003       12.6188044691      -44.6476027844  TIP3      5549            0.0000000000
     25224      5614  TIP3      OH2            -4.9902740154       13.0381425739      -42.5687483235  TIP3      5550            0.0000000000
     25225      5614  TIP3      H1             -4.9478583379       13.1706235105      -41.6060185473  TIP3      5550            0.0000000000
     25226      5614  TIP3      H2             -4.2888927373       13.6260609427      -42.8643092362  TIP3      5550            0.0000000000
     25227      5615  TIP3      OH2            -5.4290642183       12.6128370066      -39.6160279662  TIP3      5551            0.0000000000
     25228      5615  TIP3      H1             -5.8975950447       11.8511465588      -40.0085305665  TIP3      5551            0.0000000000
     25229      5615  TIP3      H2             -4.9744324033       12.1694507785      -38.8815015848  TIP3      5551            0.0000000000
     25230      5616  TIP3      OH2            -6.9915401922        8.3582508660      -34.9225830921  TIP3      5552            0.0000000000
     25231      5616  TIP3      H1             -7.8961320074        8.3166680279      -34.5654895330  TIP3      5552            0.0000000000
     25232      5616  TIP3      H2             -6.6146339004        9.1595550887      -34.5259479374  TIP3      5552            0.0000000000
     25233      5617  TIP3      OH2            -5.6631852447        6.6899086483      -49.5306761198  TIP3      5553            0.0000000000
     25234      5617  TIP3      H1             -4.7911084993        7.0741865466      -49.3311419441  TIP3      5553            0.0000000000
     25235      5617  TIP3      H2             -5.6982588108        5.9866179548      -48.8502713818  TIP3      5553            0.0000000000
     25236      5618  TIP3      OH2            -5.3182880324        4.7735090911      -47.6201667834  TIP3      5554            0.0000000000
     25237      5618  TIP3      H1             -6.0752709068        4.2829962212      -47.2332375308  TIP3      5554            0.0000000000
     25238      5618  TIP3      H2             -4.7205628059        4.8680274427      -46.8487202463  TIP3      5554            0.0000000000
     25239      5619  TIP3      OH2            -5.5554676094        7.4313911607      -42.6289582439  TIP3      5555            0.0000000000
     25240      5619  TIP3      H1             -4.7604429899        7.0347406437      -43.0287591878  TIP3      5555            0.0000000000
     25241      5619  TIP3      H2             -5.4015337146        8.3828374593      -42.8001814715  TIP3      5555            0.0000000000
     25242      5620  TIP3      OH2            -6.9904729071       10.3456762033      -40.3704346882  TIP3      5556            0.0000000000
     25243      5620  TIP3      H1             -7.6832318192       10.7018869751      -39.7932719394  TIP3      5556            0.0000000000
     25244      5620  TIP3      H2             -7.5285194337        9.9613939333      -41.0972551495  TIP3      5556            0.0000000000
     25245      5621  TIP3      OH2            -4.9976123476        4.5845580873      -51.2366809740  TIP3      5557            0.0000000000
     25246      5621  TIP3      H1             -5.5927303690        4.8854383929      -51.9529801306  TIP3      5557            0.0000000000
     25247      5621  TIP3      H2             -5.1357113358        5.2943325809      -50.5809233312  TIP3      5557            0.0000000000
     25248      5622  TIP3      OH2            -6.5852159599        1.7862433723      -52.7132627561  TIP3      5558            0.0000000000
     25249      5622  TIP3      H1             -6.5426645809        2.4435121519      -53.4207588124  TIP3      5558            0.0000000000
     25250      5622  TIP3      H2             -6.8048015440        0.9590843123      -53.1923171102  TIP3      5558            0.0000000000
     25251      5623  TIP3      OH2            -7.4949108424        3.2268919365      -47.0149369061  TIP3      5559            0.0000000000
     25252      5623  TIP3      H1             -7.6281270643        2.2691849533      -47.0809177327  TIP3      5559            0.0000000000
     25253      5623  TIP3      H2             -7.8035927688        3.3967496460      -46.1067859869  TIP3      5559            0.0000000000
     25254      5624  TIP3      OH2           -22.5043481179        5.3275174440      -42.9053934741  TIP3      5560            0.0000000000
     25255      5624  TIP3      H1            -22.3975934647        5.2458524133      -43.8834069987  TIP3      5560            0.0000000000
     25256      5624  TIP3      H2            -21.5738332800        5.1490982142      -42.6509014654  TIP3      5560            0.0000000000
     25257      5625  TIP3      OH2            -6.6169510725        5.1928586356      -37.3069922135  TIP3      5561            0.0000000000
     25258      5625  TIP3      H1             -6.0073440101        4.4254343434      -37.2204099902  TIP3      5561            0.0000000000
     25259      5625  TIP3      H2             -6.0053027397        5.9564668122      -37.3452239461  TIP3      5561            0.0000000000
     25260      5626  TIP3      OH2            -5.1157129660        3.0472030275      -36.7000431381  TIP3      5562            0.0000000000
     25261      5626  TIP3      H1             -6.0078782252        2.6631949623      -36.8418040636  TIP3      5562            0.0000000000
     25262      5626  TIP3      H2             -4.5556396460        2.2506231563      -36.7651656036  TIP3      5562            0.0000000000
     25263      5627  TIP3      OH2            -7.3671733604       -0.7181890301      -53.5952661020  TIP3      5563            0.0000000000
     25264      5627  TIP3      H1             -6.7945389740       -1.1699223517      -52.9475026663  TIP3      5563            0.0000000000
     25265      5627  TIP3      H2             -8.2380713505       -1.1170878187      -53.4470004693  TIP3      5563            0.0000000000
     25266      5628  TIP3      OH2            -7.8434508897        0.8289022794      -48.6838466667  TIP3      5564            0.0000000000
     25267      5628  TIP3      H1             -7.5825563477       -0.0954820138      -48.4479491178  TIP3      5564            0.0000000000
     25268      5628  TIP3      H2             -6.9799108904        1.1891678793      -48.9064163209  TIP3      5564            0.0000000000
     25269      5629  TIP3      OH2            -7.1297602827        1.4085182699      -43.1071385194  TIP3      5565            0.0000000000
     25270      5629  TIP3      H1             -6.1626873628        1.5754712744      -43.1124311371  TIP3      5565            0.0000000000
     25271      5629  TIP3      H2             -7.3328552545        1.4773986499      -42.1660821980  TIP3      5565            0.0000000000
     25272      5630  TIP3      OH2            -7.0945723210        2.0725863564      -40.2997464576  TIP3      5566            0.0000000000
     25273      5630  TIP3      H1             -8.0023594982        2.3546317599      -40.0609781741  TIP3      5566            0.0000000000
     25274      5630  TIP3      H2             -6.6860814183        2.9158667527      -40.6019384939  TIP3      5566            0.0000000000
     25275      5631  TIP3      OH2           -22.3771360912        0.3405061915      -37.5024592624  TIP3      5567            0.0000000000
     25276      5631  TIP3      H1            -21.6894196860        0.4933272389      -36.8262092144  TIP3      5567            0.0000000000
     25277      5631  TIP3      H2            -23.0512408513        0.0022624281      -36.9022085999  TIP3      5567            0.0000000000
     25278      5632  TIP3      OH2            -4.8176728947       -3.8349877744      -35.0407932674  TIP3      5568            0.0000000000
     25279      5632  TIP3      H1             -4.4695975359       -4.5081790987      -35.6508981287  TIP3      5568            0.0000000000
     25280      5632  TIP3      H2             -4.7566328322       -3.0377274702      -35.6046443696  TIP3      5568            0.0000000000
     25281      5633  TIP3      OH2            -7.0913027517       -1.9099021985      -48.5796218711  TIP3      5569            0.0000000000
     25282      5633  TIP3      H1             -6.9030428318       -2.2843159812      -47.6867716563  TIP3      5569            0.0000000000
     25283      5633  TIP3      H2             -7.7439776080       -2.5425392635      -48.9445334213  TIP3      5569            0.0000000000
     25284      5634  TIP3      OH2           -21.7207732191       -1.0937596998      -43.7666334788  TIP3      5570            0.0000000000
     25285      5634  TIP3      H1            -21.2313291954       -1.9242045140      -43.6397531827  TIP3      5570            0.0000000000
     25286      5634  TIP3      H2            -21.0578712114       -0.4246496991      -43.5649415013  TIP3      5570            0.0000000000
     25287      5635  TIP3      OH2           -23.3992533636        2.1057331795      -43.1454578700  TIP3      5571            0.0000000000
     25288      5635  TIP3      H1            -22.7470344087        1.6666075603      -43.7160094930  TIP3      5571            0.0000000000
     25289      5635  TIP3      H2            -22.8307958337        2.7740155433      -42.7455514092  TIP3      5571            0.0000000000
     25290      5636  TIP3      OH2            -5.3213190267       -1.7481817588      -36.6847436604  TIP3      5572            0.0000000000
     25291      5636  TIP3      H1             -6.2522544699       -1.4614979492      -36.7320614514  TIP3      5572            0.0000000000
     25292      5636  TIP3      H2             -5.3140573948       -2.3164462848      -37.4707110793  TIP3      5572            0.0000000000
     25293      5637  TIP3      OH2            -5.3371305953       -1.8710644842      -51.9855602875  TIP3      5573            0.0000000000
     25294      5637  TIP3      H1             -4.9361490582       -2.5716160492      -52.5485117039  TIP3      5573            0.0000000000
     25295      5637  TIP3      H2             -4.6222340711       -1.2192713561      -51.9330369620  TIP3      5573            0.0000000000
     25296      5638  TIP3      OH2           -22.6381535663       -2.0062364991      -48.6644928659  TIP3      5574            0.0000000000
     25297      5638  TIP3      H1            -23.5718605696       -1.7900755119      -48.5693156350  TIP3      5574            0.0000000000
     25298      5638  TIP3      H2            -22.3383438593       -1.4195024718      -49.3979468348  TIP3      5574            0.0000000000
     25299      5639  TIP3      OH2            -8.2782887902       13.1148010290      -46.9108265041  TIP3      5575            0.0000000000
     25300      5639  TIP3      H1             -7.5895779658       12.8323856084      -47.5399214482  TIP3      5575            0.0000000000
     25301      5639  TIP3      H2             -7.7772223152       13.6193087975      -46.2517806921  TIP3      5575            0.0000000000
     25302      5640  TIP3      OH2            23.9280933110       -3.1168102620      -40.6818322239  TIP3      5576            0.0000000000
     25303      5640  TIP3      H1             23.2763080108       -3.4302658128      -40.0250952191  TIP3      5576            0.0000000000
     25304      5640  TIP3      H2             23.3861718627       -2.4854429857      -41.1768627637  TIP3      5576            0.0000000000
     25305      5641  TIP3      OH2           -20.8960102678        9.8681059735      -36.3818456838  TIP3      5577            0.0000000000
     25306      5641  TIP3      H1            -21.6659850287       10.2842790839      -36.7752465460  TIP3      5577            0.0000000000
     25307      5641  TIP3      H2            -21.0709431461        9.9196214385      -35.4318498893  TIP3      5577            0.0000000000
     25308      5642  TIP3      OH2           -17.9661051998       11.0326658598      -40.1638119828  TIP3      5578            0.0000000000
     25309      5642  TIP3      H1            -18.2381067630       11.9405677063      -40.3865639948  TIP3      5578            0.0000000000
     25310      5642  TIP3      H2            -17.0220064216       11.0950783372      -40.4301152215  TIP3      5578            0.0000000000
     25311      5643  TIP3      OH2           -13.6067341336       12.4465370806      -37.2466247150  TIP3      5579            0.0000000000
     25312      5643  TIP3      H1            -13.4708865374       12.1038004860      -36.3350462253  TIP3      5579            0.0000000000
     25313      5643  TIP3      H2            -12.7072278515       12.7747253134      -37.4789593208  TIP3      5579            0.0000000000
     25314      5644  TIP3      OH2           -11.3267399924       13.7106992808      -37.9043554825  TIP3      5580            0.0000000000
     25315      5644  TIP3      H1            -10.5762005324       13.1594465069      -38.1575492852  TIP3      5580            0.0000000000
     25316      5644  TIP3      H2            -10.9585123682       14.1741449028      -37.1223362591  TIP3      5580            0.0000000000
     25317      5645  TIP3      OH2            -6.3028097655       -3.6855792440      -38.7953942918  TIP3      5581            0.0000000000
     25318      5645  TIP3      H1             -7.1007706773       -3.3550303754      -39.2435660335  TIP3      5581            0.0000000000
     25319      5645  TIP3      H2             -6.1358663836       -4.5177481319      -39.2906071114  TIP3      5581            0.0000000000
     25320      5646  TIP3      OH2           -20.6105148645       14.1868318566      -40.1738177888  TIP3      5582            0.0000000000
     25321      5646  TIP3      H1            -21.2802352918       14.7953919289      -40.5632444107  TIP3      5582            0.0000000000
     25322      5646  TIP3      H2            -20.8668712661       14.1732539376      -39.2430580085  TIP3      5582            0.0000000000
     25323      5647  TIP3      OH2           -18.0308648933       13.8610824612      -41.0532544890  TIP3      5583            0.0000000000
     25324      5647  TIP3      H1            -18.9293101234       14.0334545681      -40.6917743194  TIP3      5583            0.0000000000
     25325      5647  TIP3      H2            -18.0640553199       14.4194961580      -41.8521379087  TIP3      5583            0.0000000000
     25326      5648  TIP3      OH2           -13.3261197664       13.7405672266      -41.9240261792  TIP3      5584            0.0000000000
     25327      5648  TIP3      H1            -13.7937241671       14.3054215313      -42.5583962640  TIP3      5584            0.0000000000
     25328      5648  TIP3      H2            -13.1968663633       14.3639762065      -41.1709206682  TIP3      5584            0.0000000000
     25329      5649  TIP3      OH2           -11.0731501262       12.5069800436      -40.8207916128  TIP3      5585            0.0000000000
     25330      5649  TIP3      H1            -11.8860192870       12.8282597384      -41.2533279672  TIP3      5585            0.0000000000
     25331      5649  TIP3      H2            -10.5327987380       13.3061287513      -40.9225382861  TIP3      5585            0.0000000000
     25332      5650  TIP3      OH2            -8.4971610992       14.0732866024      -40.6805586938  TIP3      5586            0.0000000000
     25333      5650  TIP3      H1             -8.4794520939       15.0394841829      -40.8907817069  TIP3      5586            0.0000000000
     25334      5650  TIP3      H2             -8.2461925990       13.7032117902      -41.5520974869  TIP3      5586            0.0000000000
     25335      5651  TIP3      OH2           -21.0369714544       12.8794273809      -43.2663442602  TIP3      5587            0.0000000000
     25336      5651  TIP3      H1            -21.0754874119       12.4681449200      -42.3855915749  TIP3      5587            0.0000000000
     25337      5651  TIP3      H2            -20.2105632974       12.5160224866      -43.6347085833  TIP3      5587            0.0000000000
     25338      5652  TIP3      OH2           -18.9784642380       11.6003045016      -44.5621711270  TIP3      5588            0.0000000000
     25339      5652  TIP3      H1            -19.1101830907       10.6675992803      -44.3055252162  TIP3      5588            0.0000000000
     25340      5652  TIP3      H2            -18.1278437604       11.7915702923      -44.1176568669  TIP3      5588            0.0000000000
     25341      5653  TIP3      OH2           -16.3400047680       12.0934395607      -43.6558488233  TIP3      5589            0.0000000000
     25342      5653  TIP3      H1            -16.2064321243       11.1646187932      -43.9152565082  TIP3      5589            0.0000000000
     25343      5653  TIP3      H2            -16.3027510757       12.0448238173      -42.6908275179  TIP3      5589            0.0000000000
     25344      5654  TIP3      OH2           -13.0405759677       -2.2723915423      -44.6458332024  TIP3      5590            0.0000000000
     25345      5654  TIP3      H1            -13.5768453738       -2.9449236645      -44.2204504125  TIP3      5590            0.0000000000
     25346      5654  TIP3      H2            -12.3108674125       -2.7681173405      -45.0415287087  TIP3      5590            0.0000000000
     25347      5655  TIP3      OH2            -7.7667774148       -4.3055543975      -44.5830548652  TIP3      5591            0.0000000000
     25348      5655  TIP3      H1             -7.1854413308       -3.5851881387      -44.9543484350  TIP3      5591            0.0000000000
     25349      5655  TIP3      H2             -8.6359761755       -3.8486775625      -44.6791589613  TIP3      5591            0.0000000000
     25350      5656  TIP3      OH2            -6.0374138224       -3.0390404444      -46.3194635882  TIP3      5592            0.0000000000
     25351      5656  TIP3      H1             -5.2868002048       -3.5530949478      -46.6642924286  TIP3      5592            0.0000000000
     25352      5656  TIP3      H2             -5.6431412507       -2.1716308071      -46.0687284482  TIP3      5592            0.0000000000
     25353      5657  TIP3      OH2           -20.4793663993       -3.6897796222      -46.7069097442  TIP3      5593            0.0000000000
     25354      5657  TIP3      H1            -21.3122269921       -3.7497493971      -47.2182719614  TIP3      5593            0.0000000000
     25355      5657  TIP3      H2            -20.1374472791       -4.5939240558      -46.8191547887  TIP3      5593            0.0000000000
     25356      5658  TIP3      OH2           -21.6752551407       -3.9198345732      -50.9443421010  TIP3      5594            0.0000000000
     25357      5658  TIP3      H1            -21.2877796528       -3.2576470691      -51.5427852973  TIP3      5594            0.0000000000
     25358      5658  TIP3      H2            -22.2734736943       -3.3605492728      -50.4349728721  TIP3      5594            0.0000000000
     25359      5659  TIP3      OH2           -15.8454580438       -3.3758661218      -46.9515146088  TIP3      5595            0.0000000000
     25360      5659  TIP3      H1            -14.9067468142       -3.1371143673      -47.1082884939  TIP3      5595            0.0000000000
     25361      5659  TIP3      H2            -15.7752470877       -3.5361234336      -46.0180659842  TIP3      5595            0.0000000000
     25362      5660  TIP3      OH2           -10.3584658768       -3.6718571802      -45.2790310938  TIP3      5596            0.0000000000
     25363      5660  TIP3      H1            -10.4080579284       -3.5291192478      -46.2329961510  TIP3      5596            0.0000000000
     25364      5660  TIP3      H2            -10.7248580922       -4.5781781376      -45.1703134088  TIP3      5596            0.0000000000
     25365      5661  TIP3      OH2            -9.0899922065       -3.6604769279      -49.5932297263  TIP3      5597            0.0000000000
     25366      5661  TIP3      H1             -9.8423834437       -3.0660606795      -49.7345881775  TIP3      5597            0.0000000000
     25367      5661  TIP3      H2             -9.5145025368       -4.5118645981      -49.3335991167  TIP3      5597            0.0000000000
     25368      5662  TIP3      OH2           -21.8206259401       12.1283654183      -49.9109077832  TIP3      5598            0.0000000000
     25369      5662  TIP3      H1            -22.5073427889       12.0616249839      -50.5918830502  TIP3      5598            0.0000000000
     25370      5662  TIP3      H2            -21.7976069983       13.0923286001      -49.8126935921  TIP3      5598            0.0000000000
     25371      5663  TIP3      OH2           -19.9172178619       -1.9094568152      -52.4653538604  TIP3      5599            0.0000000000
     25372      5663  TIP3      H1            -19.3954580960       -2.5526912288      -52.9722266284  TIP3      5599            0.0000000000
     25373      5663  TIP3      H2            -19.2430825916       -1.6251062007      -51.8228732495  TIP3      5599            0.0000000000
     25374      5664  TIP3      OH2           -14.9766864796       -1.7178032779      -50.0317468467  TIP3      5600            0.0000000000
     25375      5664  TIP3      H1            -14.6441686382       -2.2590723210      -49.2988116567  TIP3      5600            0.0000000000
     25376      5664  TIP3      H2            -14.8341813157       -0.8315159955      -49.6384991401  TIP3      5600            0.0000000000
     25377      5665  TIP3      OH2           -12.9724811092       13.4178251845      -51.6145954157  TIP3      5601            0.0000000000
     25378      5665  TIP3      H1            -12.0385665838       13.5834615887      -51.8297118605  TIP3      5601            0.0000000000
     25379      5665  TIP3      H2            -13.1976290687       12.8529550284      -52.3840749115  TIP3      5601            0.0000000000
     25380      5666  TIP3      OH2            -6.3164907336       12.8588077726      -48.8567781266  TIP3      5602            0.0000000000
     25381      5666  TIP3      H1             -6.4909248930       12.0751631437      -49.4298518205  TIP3      5602            0.0000000000
     25382      5666  TIP3      H2             -6.3806623671       13.5958740248      -49.5006962998  TIP3      5602            0.0000000000
     25383      5667  TIP3      OH2           -20.6967648954       -3.0660046090      -37.1851044881  TIP3      5603            0.0000000000
     25384      5667  TIP3      H1            -21.0926178243       -3.8718427894      -36.8117877365  TIP3      5603            0.0000000000
     25385      5667  TIP3      H2            -19.7735595480       -3.1511435684      -36.8398465173  TIP3      5603            0.0000000000
     25386      5668  TIP3      OH2           -18.6536664423       -3.6977789963      -35.5618129362  TIP3      5604            0.0000000000
     25387      5668  TIP3      H1            -17.7716276101       -4.0546037103      -35.7803766428  TIP3      5604            0.0000000000
     25388      5668  TIP3      H2            -19.0652098157       -4.4887644646      -35.1678994734  TIP3      5604            0.0000000000
     25389      5669  TIP3      OH2           -20.0708397403       13.0419749324      -53.0025886099  TIP3      5605            0.0000000000
     25390      5669  TIP3      H1            -20.3563856755       13.3217631955      -52.1188553023  TIP3      5605            0.0000000000
     25391      5669  TIP3      H2            -19.2997910952       12.4794392337      -52.8074417795  TIP3      5605            0.0000000000
     25392      5670  TIP3      OH2           -10.2586131949       -4.4237522845      -35.4211729943  TIP3      5606            0.0000000000
     25393      5670  TIP3      H1            -10.1735217745       -4.8975725498      -34.5709976189  TIP3      5606            0.0000000000
     25394      5670  TIP3      H2             -9.3425917511       -4.4676711880      -35.7654202120  TIP3      5606            0.0000000000
     25395      5671  TIP3      OH2            -7.0928003645       11.6362961435      -36.7617674577  TIP3      5607            0.0000000000
     25396      5671  TIP3      H1             -7.8266809773       11.5236680450      -37.4067700880  TIP3      5607            0.0000000000
     25397      5671  TIP3      H2             -7.1583953279       12.6033894696      -36.6282181688  TIP3      5607            0.0000000000
     25398      5672  TIP3      OH2             7.4312141174        5.5251088184      -46.8818480007  TIP3      5608            0.0000000000
     25399      5672  TIP3      H1              7.3657883229        6.5036706499      -46.8414526848  TIP3      5608            0.0000000000
     25400      5672  TIP3      H2              6.6714177512        5.2932338092      -47.4385780371  TIP3      5608            0.0000000000
     25401      5673  TIP3      OH2             6.2706970346        4.7461592439      -43.3488827060  TIP3      5609            0.0000000000
     25402      5673  TIP3      H1              6.2483909004        4.1266866517      -42.6036543509  TIP3      5609            0.0000000000
     25403      5673  TIP3      H2              5.8710733663        4.2229890546      -44.0666329879  TIP3      5609            0.0000000000
     25404      5674  TIP3      OH2            -1.4015177728        4.4570278700      -41.7847160131  TIP3      5610            0.0000000000
     25405      5674  TIP3      H1             -1.3130492089        3.7591552950      -41.1072892110  TIP3      5610            0.0000000000
     25406      5674  TIP3      H2             -0.6426863017        5.0170800593      -41.5533672337  TIP3      5610            0.0000000000
     25407      5675  TIP3      OH2             9.9113117103        7.7094152319      -45.0399046593  TIP3      5611            0.0000000000
     25408      5675  TIP3      H1              9.5260192298        6.9880271197      -44.5336134301  TIP3      5611            0.0000000000
     25409      5675  TIP3      H2              9.9756298627        8.4045347374      -44.3618970144  TIP3      5611            0.0000000000
     25410      5676  TIP3      OH2            -0.4763572952        8.9160818683      -43.3340137198  TIP3      5612            0.0000000000
     25411      5676  TIP3      H1             -0.7702814061        8.0222567009      -43.6035816100  TIP3      5612            0.0000000000
     25412      5676  TIP3      H2              0.4804854297        8.7431027154      -43.2755245073  TIP3      5612            0.0000000000
     25413      5677  TIP3      OH2            -3.8499378917        2.4226735618      -47.7777521767  TIP3      5613            0.0000000000
     25414      5677  TIP3      H1             -4.2785692895        3.2937288712      -47.8598300243  TIP3      5613            0.0000000000
     25415      5677  TIP3      H2             -4.3905617236        1.8805234912      -48.3649337598  TIP3      5613            0.0000000000
     25416      5678  TIP3      OH2            -3.1036880237        4.6795637082      -45.6038597441  TIP3      5614            0.0000000000
     25417      5678  TIP3      H1             -2.8129012657        3.8397281091      -45.1948678368  TIP3      5614            0.0000000000
     25418      5678  TIP3      H2             -2.4550538867        4.8013423572      -46.3103003129  TIP3      5614            0.0000000000
     25419      5679  TIP3      OH2             7.0450793408       12.8858773314      -44.8010252942  TIP3      5615            0.0000000000
     25420      5679  TIP3      H1              7.7069128211       12.2166862133      -45.1022252250  TIP3      5615            0.0000000000
     25421      5679  TIP3      H2              6.8111404598       12.5054560105      -43.9526619251  TIP3      5615            0.0000000000
     25422      5680  TIP3      OH2             4.6291146810        7.1472390265      -42.8159158434  TIP3      5616            0.0000000000
     25423      5680  TIP3      H1              4.9535716182        6.5433873885      -43.5023470583  TIP3      5616            0.0000000000
     25424      5680  TIP3      H2              5.4637093371        7.3200004627      -42.3406916254  TIP3      5616            0.0000000000
     25425      5681  TIP3      OH2            13.1965705889       -1.1714083230      -42.1686254201  TIP3      5617            0.0000000000
     25426      5681  TIP3      H1             13.3914669111       -0.5996936694      -41.3914321746  TIP3      5617            0.0000000000
     25427      5681  TIP3      H2             13.7954790287       -0.7804900974      -42.8223276613  TIP3      5617            0.0000000000
     25428      5682  TIP3      OH2             7.7984850522        1.6310699502      -42.5252141074  TIP3      5618            0.0000000000
     25429      5682  TIP3      H1              7.9819891913        0.6757709459      -42.5018509758  TIP3      5618            0.0000000000
     25430      5682  TIP3      H2              7.7109878938        1.7553737060      -43.4921297678  TIP3      5618            0.0000000000
     25431      5683  TIP3      OH2             0.8955186787       -0.2781004725      -45.3425741035  TIP3      5619            0.0000000000
     25432      5683  TIP3      H1              1.0333601732        0.5438928030      -45.8514231904  TIP3      5619            0.0000000000
     25433      5683  TIP3      H2              0.5155209408       -0.8568834267      -46.0390433945  TIP3      5619            0.0000000000
     25434      5684  TIP3      OH2             8.6162285603       -0.1767267810      -46.9198282613  TIP3      5620            0.0000000000
     25435      5684  TIP3      H1              9.2841126725       -0.5353475800      -46.2950661497  TIP3      5620            0.0000000000
     25436      5684  TIP3      H2              9.2159833229        0.3618836464      -47.4654638095  TIP3      5620            0.0000000000
     25437      5685  TIP3      OH2            -2.4795745353        2.1507622413      -44.6140013920  TIP3      5621            0.0000000000
     25438      5685  TIP3      H1             -1.8187081545        1.6185721462      -44.1335451850  TIP3      5621            0.0000000000
     25439      5685  TIP3      H2             -2.3459947923        1.8163275450      -45.5153010575  TIP3      5621            0.0000000000
     25440      5686  TIP3      OH2             2.6683963794        3.6936429225      -45.2390422466  TIP3      5622            0.0000000000
     25441      5686  TIP3      H1              3.3683538955        3.1128533365      -44.8899798870  TIP3      5622            0.0000000000
     25442      5686  TIP3      H2              2.1838463481        3.0562166450      -45.7970552583  TIP3      5622            0.0000000000
     25443      5687  TIP3      OH2            13.6369652625        0.2068007726      -39.8610868428  TIP3      5623            0.0000000000
     25444      5687  TIP3      H1             13.0785520610        1.0043715302      -40.0002811866  TIP3      5623            0.0000000000
     25445      5687  TIP3      H2             13.6793533770        0.1845925244      -38.8956852315  TIP3      5623            0.0000000000
     25446      5688  TIP3      OH2            -0.1570484316       -1.3745071951      -41.2976279888  TIP3      5624            0.0000000000
     25447      5688  TIP3      H1             -0.4487467346       -0.7972191547      -42.0380794268  TIP3      5624            0.0000000000
     25448      5688  TIP3      H2             -0.8276621654       -1.1465390837      -40.6100500924  TIP3      5624            0.0000000000
     25449      5689  TIP3      OH2             7.0815300068        8.0919596968      -47.7422605620  TIP3      5625            0.0000000000
     25450      5689  TIP3      H1              6.8644876836        7.8444335398      -48.6545005378  TIP3      5625            0.0000000000
     25451      5689  TIP3      H2              6.7937554838        9.0303090939      -47.6939630180  TIP3      5625            0.0000000000
     25452      5690  TIP3      OH2             2.3216687785        6.2662600058      -41.0821009675  TIP3      5626            0.0000000000
     25453      5690  TIP3      H1              1.6367442870        6.9153070191      -40.8168899289  TIP3      5626            0.0000000000
     25454      5690  TIP3      H2              3.0347978561        6.8583611399      -41.3747369957  TIP3      5626            0.0000000000
     25455      5691  TIP3      OH2            10.4167761418       -0.7899995778      -44.8646155318  TIP3      5627            0.0000000000
     25456      5691  TIP3      H1             10.2637799750       -1.6199423095      -44.4062475512  TIP3      5627            0.0000000000
     25457      5691  TIP3      H2             11.1627628869       -0.4173244388      -44.3694509564  TIP3      5627            0.0000000000
     25458      5692  TIP3      OH2            -0.5759875044        0.4658712348      -43.2323063784  TIP3      5628            0.0000000000
     25459      5692  TIP3      H1              0.0375313945        1.1752981239      -42.9399180542  TIP3      5628            0.0000000000
     25460      5692  TIP3      H2             -0.0846389657        0.0861364268      -44.0046087212  TIP3      5628            0.0000000000
     25461      5693  TIP3      OH2             0.7942345373        8.2913977228      -40.2449466714  TIP3      5629            0.0000000000
     25462      5693  TIP3      H1              0.7313741329        9.2078627884      -40.5692358254  TIP3      5629            0.0000000000
     25463      5693  TIP3      H2             -0.0882167432        8.1956888716      -39.8048279722  TIP3      5629            0.0000000000
     25464      5694  TIP3      OH2            -3.1350824093        7.8528497858      -49.4706513022  TIP3      5630            0.0000000000
     25465      5694  TIP3      H1             -3.3748343399        8.2471057127      -50.3286529613  TIP3      5630            0.0000000000
     25466      5694  TIP3      H2             -3.0435959495        8.6490231361      -48.9107694053  TIP3      5630            0.0000000000
     25467      5695  TIP3      OH2            10.4592972739        9.5642196992      -42.6833038639  TIP3      5631            0.0000000000
     25468      5695  TIP3      H1              9.4905407806        9.6852389590      -42.5635677794  TIP3      5631            0.0000000000
     25469      5695  TIP3      H2             10.7276952844       10.4738865151      -42.9095425563  TIP3      5631            0.0000000000
     25470      5696  TIP3      OH2            10.7931233419       -2.1725927745      -41.3064131962  TIP3      5632            0.0000000000
     25471      5696  TIP3      H1             10.0772965010       -1.5294735845      -41.4261401101  TIP3      5632            0.0000000000
     25472      5696  TIP3      H2             11.5313533824       -1.7542135468      -41.7996954178  TIP3      5632            0.0000000000
     25473      5697  TIP3      OH2             3.7206087694       -4.0315779847      -43.8437596997  TIP3      5633            0.0000000000
     25474      5697  TIP3      H1              3.5563546179       -4.9899579440      -43.9253973445  TIP3      5633            0.0000000000
     25475      5697  TIP3      H2              2.8509480723       -3.7203299858      -43.5099552732  TIP3      5633            0.0000000000
     25476      5698  TIP3      OH2             8.7313953757       11.3492184503      -46.1078979297  TIP3      5634            0.0000000000
     25477      5698  TIP3      H1              9.1371784851       10.6163133806      -46.6184791630  TIP3      5634            0.0000000000
     25478      5698  TIP3      H2              9.2229285530       12.1177289363      -46.4756268835  TIP3      5634            0.0000000000
     25479      5699  TIP3      OH2             9.9572274426        9.2665920829      -47.5707933036  TIP3      5635            0.0000000000
     25480      5699  TIP3      H1              9.6428931165        8.5821886862      -48.1829506529  TIP3      5635            0.0000000000
     25481      5699  TIP3      H2              9.9809893321        8.7664657471      -46.7356016389  TIP3      5635            0.0000000000
     25482      5700  TIP3      OH2            11.5310806099        7.8854339994      -39.0837466761  TIP3      5636            0.0000000000
     25483      5700  TIP3      H1             11.7002071047        7.1990395382      -39.7683749245  TIP3      5636            0.0000000000
     25484      5700  TIP3      H2             11.7679013284        8.7042332628      -39.5591199015  TIP3      5636            0.0000000000
     25485      5701  TIP3      OH2             6.0375525452        4.7272704600      -49.3449904301  TIP3      5637            0.0000000000
     25486      5701  TIP3      H1              5.3792728387        5.3482466120      -49.7075786657  TIP3      5637            0.0000000000
     25487      5701  TIP3      H2              6.7778626810        4.8471138526      -49.9694157522  TIP3      5637            0.0000000000
     25488      5702  TIP3      OH2             6.1575147794        3.3640320803      -52.3336276690  TIP3      5638            0.0000000000
     25489      5702  TIP3      H1              6.8515749297        3.3709126013      -51.6537390132  TIP3      5638            0.0000000000
     25490      5702  TIP3      H2              6.4473042636        2.6040764884      -52.8512560068  TIP3      5638            0.0000000000
     25491      5703  TIP3      OH2            13.4490797615        4.1927346604      -41.0710542407  TIP3      5639            0.0000000000
     25492      5703  TIP3      H1             12.8085446662        4.9302914310      -41.0323753237  TIP3      5639            0.0000000000
     25493      5703  TIP3      H2             13.9717963499        4.4420929524      -41.8569228103  TIP3      5639            0.0000000000
     25494      5704  TIP3      OH2             9.5433454745        4.9322567921      -48.3976088894  TIP3      5640            0.0000000000
     25495      5704  TIP3      H1              8.7975695206        5.1906592394      -47.8066688313  TIP3      5640            0.0000000000
     25496      5704  TIP3      H2             10.0232154635        4.2745757711      -47.8591947094  TIP3      5640            0.0000000000
     25497      5705  TIP3      OH2             9.4472572419        3.1282214646      -39.2563810504  TIP3      5641            0.0000000000
     25498      5705  TIP3      H1              9.4346847384        3.9596155304      -38.7561790312  TIP3      5641            0.0000000000
     25499      5705  TIP3      H2              8.8259361324        3.3980841191      -39.9620549697  TIP3      5641            0.0000000000
     25500      5706  TIP3      OH2             1.1158733379        5.6070072611      -46.4767477867  TIP3      5642            0.0000000000
     25501      5706  TIP3      H1              0.8103345287        5.2216189021      -47.3334723972  TIP3      5642            0.0000000000
     25502      5706  TIP3      H2              1.7386959850        4.9236544120      -46.1445302306  TIP3      5642            0.0000000000
     25503      5707  TIP3      OH2             2.4260682286        8.9716205619      -43.8056607217  TIP3      5643            0.0000000000
     25504      5707  TIP3      H1              2.4487968473        8.4885301441      -44.6435214602  TIP3      5643            0.0000000000
     25505      5707  TIP3      H2              3.2228112674        8.6358196774      -43.3536846852  TIP3      5643            0.0000000000
     25506      5708  TIP3      OH2             1.4279951056        4.3630129953      -42.7988341439  TIP3      5644            0.0000000000
     25507      5708  TIP3      H1              1.9569838844        4.4400236205      -43.6178155791  TIP3      5644            0.0000000000
     25508      5708  TIP3      H2              1.8501463986        5.0323819470      -42.2127914253  TIP3      5644            0.0000000000
     25509      5709  TIP3      OH2             7.8897793428        9.9571003950      -42.0966690197  TIP3      5645            0.0000000000
     25510      5709  TIP3      H1              7.6002062415       10.5939495062      -41.4309432682  TIP3      5645            0.0000000000
     25511      5709  TIP3      H2              7.6352907787        9.1011049589      -41.6840303867  TIP3      5645            0.0000000000
     25512      5710  TIP3      OH2             2.4046963086        8.8058618541      -38.1141798196  TIP3      5646            0.0000000000
     25513      5710  TIP3      H1              1.9469573751        9.5164359748      -37.6154585117  TIP3      5646            0.0000000000
     25514      5710  TIP3      H2              1.7502521603        8.5887837532      -38.8229179043  TIP3      5646            0.0000000000
     25515      5711  TIP3      OH2             8.3800503847        4.2460823831      -50.7508164791  TIP3      5647            0.0000000000
     25516      5711  TIP3      H1              8.9584736898        4.3299949020      -49.9537487442  TIP3      5647            0.0000000000
     25517      5711  TIP3      H2              8.8873116073        4.6846522843      -51.4726008880  TIP3      5647            0.0000000000
     25518      5712  TIP3      OH2            -0.6345680581        4.9587818907      -39.0106913623  TIP3      5648            0.0000000000
     25519      5712  TIP3      H1             -0.5655561934        5.6131324230      -38.2923550015  TIP3      5648            0.0000000000
     25520      5712  TIP3      H2             -1.5928455900        5.0074960437      -39.1551195942  TIP3      5648            0.0000000000
     25521      5713  TIP3      OH2             6.1043096041       10.8923852728      -47.2702811719  TIP3      5649            0.0000000000
     25522      5713  TIP3      H1              6.5167479418       11.1977598038      -46.4537772407  TIP3      5649            0.0000000000
     25523      5713  TIP3      H2              5.5541132697       11.6442654227      -47.5229941327  TIP3      5649            0.0000000000
     25524      5714  TIP3      OH2             0.6627844345       10.8133778106      -37.3838689848  TIP3      5650            0.0000000000
     25525      5714  TIP3      H1              0.5700008749       10.7437697685      -38.3521636128  TIP3      5650            0.0000000000
     25526      5714  TIP3      H2             -0.2582689851       10.6691841390      -37.0927230311  TIP3      5650            0.0000000000
     25527      5715  TIP3      OH2            12.1343377957       -4.1092106753      -50.7980398735  TIP3      5651            0.0000000000
     25528      5715  TIP3      H1             11.1769342704       -3.9925414733      -50.5782696048  TIP3      5651            0.0000000000
     25529      5715  TIP3      H2             12.3065164835       -3.2375778473      -51.2180839294  TIP3      5651            0.0000000000
     25530      5716  TIP3      OH2             0.0593924574        4.6113525137      -48.8264994851  TIP3      5652            0.0000000000
     25531      5716  TIP3      H1             -0.2088991102        5.3988585424      -49.3479284020  TIP3      5652            0.0000000000
     25532      5716  TIP3      H2             -0.5677104041        3.9441809069      -49.1160723862  TIP3      5652            0.0000000000
     25533      5717  TIP3      OH2            13.2322533793       10.2506492284      -52.4740023032  TIP3      5653            0.0000000000
     25534      5717  TIP3      H1             13.4254919156       11.1884193726      -52.3012915323  TIP3      5653            0.0000000000
     25535      5717  TIP3      H2             14.1429282608        9.9031257836      -52.4418731001  TIP3      5653            0.0000000000
     25536      5718  TIP3      OH2            -3.8194313557        7.0837110575      -39.9317413481  TIP3      5654            0.0000000000
     25537      5718  TIP3      H1             -4.2655728924        6.9927378039      -40.7936755616  TIP3      5654            0.0000000000
     25538      5718  TIP3      H2             -3.7096451286        6.1334483867      -39.7209983476  TIP3      5654            0.0000000000
     25539      5719  TIP3      OH2            -4.0747198650        9.8062365284      -43.1804781962  TIP3      5655            0.0000000000
     25540      5719  TIP3      H1             -3.1174753657        9.6867695315      -43.2025532683  TIP3      5655            0.0000000000
     25541      5719  TIP3      H2             -4.1453917724       10.6366630993      -42.6946443278  TIP3      5655            0.0000000000
     25542      5720  TIP3      OH2            14.1774451642       10.5213622991      -37.4728237988  TIP3      5656            0.0000000000
     25543      5720  TIP3      H1             14.0452322647        9.5630721567      -37.5222465219  TIP3      5656            0.0000000000
     25544      5720  TIP3      H2             13.2950946135       10.7751509886      -37.1133433362  TIP3      5656            0.0000000000
     25545      5721  TIP3      OH2             5.1279969676       10.0437544224      -38.6288074422  TIP3      5657            0.0000000000
     25546      5721  TIP3      H1              5.1762652555       10.8875542176      -38.1191616649  TIP3      5657            0.0000000000
     25547      5721  TIP3      H2              4.2578962145        9.6737587384      -38.3843638155  TIP3      5657            0.0000000000
     25548      5722  TIP3      OH2             5.6008271196       13.7848948038      -48.8656310272  TIP3      5658            0.0000000000
     25549      5722  TIP3      H1              5.4669446070       13.7294365056      -49.8285005605  TIP3      5658            0.0000000000
     25550      5722  TIP3      H2              5.5845719250       14.7423062400      -48.6840648021  TIP3      5658            0.0000000000
     25551      5723  TIP3      OH2            -0.7810333579       12.6756522778      -47.0132801502  TIP3      5659            0.0000000000
     25552      5723  TIP3      H1             -0.6254396359       12.2617389131      -46.1328989476  TIP3      5659            0.0000000000
     25553      5723  TIP3      H2             -1.6282356757       12.2586739403      -47.2491880147  TIP3      5659            0.0000000000
     25554      5724  TIP3      OH2             8.6474092530       13.0184272371      -51.8751423446  TIP3      5660            0.0000000000
     25555      5724  TIP3      H1              9.1185762386       12.2635912858      -52.2982136627  TIP3      5660            0.0000000000
     25556      5724  TIP3      H2              8.6826514560       12.7666808166      -50.9274481823  TIP3      5660            0.0000000000
     25557      5725  TIP3      OH2             8.3394967903       12.9520487894      -49.0845618977  TIP3      5661            0.0000000000
     25558      5725  TIP3      H1              7.3744405466       13.0279862819      -48.9422499827  TIP3      5661            0.0000000000
     25559      5725  TIP3      H2              8.5445677539       12.1954982817      -48.5159365279  TIP3      5661            0.0000000000
     25560      5726  TIP3      OH2            11.3206449499        1.9675058099      -37.0303476823  TIP3      5662            0.0000000000
     25561      5726  TIP3      H1             10.8255009922        2.4119041462      -37.7398549030  TIP3      5662            0.0000000000
     25562      5726  TIP3      H2             11.2856817796        1.0443788491      -37.3217441471  TIP3      5662            0.0000000000
     25563      5727  TIP3      OH2            -1.5222454456        8.3848339308      -39.0235700061  TIP3      5663            0.0000000000
     25564      5727  TIP3      H1             -1.3146747258        8.0381218527      -38.1301492590  TIP3      5663            0.0000000000
     25565      5727  TIP3      H2             -2.3988553882        7.9982618939      -39.2317276260  TIP3      5663            0.0000000000
     25566      5728  TIP3      OH2             1.1614393387       -3.1226893251      -43.0884469053  TIP3      5664            0.0000000000
     25567      5728  TIP3      H1              0.2594397900       -3.2707248064      -43.4479352689  TIP3      5664            0.0000000000
     25568      5728  TIP3      H2              1.0020291846       -2.3148226958      -42.5731701428  TIP3      5664            0.0000000000
     25569      5729  TIP3      OH2             5.8124549158       -3.4904739133      -39.7349804448  TIP3      5665            0.0000000000
     25570      5729  TIP3      H1              6.1938253748       -3.9108536866      -38.9411668571  TIP3      5665            0.0000000000
     25571      5729  TIP3      H2              4.8381941968       -3.5704028292      -39.5832651379  TIP3      5665            0.0000000000
     25572      5730  TIP3      OH2             9.0662179686        0.3991048964      -38.8145023381  TIP3      5666            0.0000000000
     25573      5730  TIP3      H1              8.4933160305        0.1639480191      -38.0433255473  TIP3      5666            0.0000000000
     25574      5730  TIP3      H2              8.8835979237        1.3332396726      -39.0217562215  TIP3      5666            0.0000000000
     25575      5731  TIP3      OH2             9.8551817063        5.2165716399      -52.8321069406  TIP3      5667            0.0000000000
     25576      5731  TIP3      H1              9.7716466063        5.0535396923      -53.7981028715  TIP3      5667            0.0000000000
     25577      5731  TIP3      H2             10.7093381386        5.6721094015      -52.8467273731  TIP3      5667            0.0000000000
     25578      5732  TIP3      OH2             5.4096790584       -0.8508396172      -52.4115621197  TIP3      5668            0.0000000000
     25579      5732  TIP3      H1              5.1017548578       -0.9421272092      -51.4941485602  TIP3      5668            0.0000000000
     25580      5732  TIP3      H2              5.1277521264       -1.7303606505      -52.7314230140  TIP3      5668            0.0000000000
     25581      5733  TIP3      OH2             1.2551037300        1.8596093553      -41.7715984833  TIP3      5669            0.0000000000
     25582      5733  TIP3      H1              0.5045773879        1.8654975120      -41.1530451473  TIP3      5669            0.0000000000
     25583      5733  TIP3      H2              1.2023786600        2.7508622617      -42.1870469087  TIP3      5669            0.0000000000
     25584      5734  TIP3      OH2             1.2226717949        1.9122135721      -46.9453262768  TIP3      5670            0.0000000000
     25585      5734  TIP3      H1              0.2735600427        1.7070390256      -47.0702115983  TIP3      5670            0.0000000000
     25586      5734  TIP3      H2              1.5791276161        1.6624549771      -47.8219946238  TIP3      5670            0.0000000000
     25587      5735  TIP3      OH2             6.7511427141        2.4558768623      -48.1839890432  TIP3      5671            0.0000000000
     25588      5735  TIP3      H1              6.3654477566        3.2807277377      -48.5672932984  TIP3      5671            0.0000000000
     25589      5735  TIP3      H2              7.4431572451        2.2422468981      -48.8417305994  TIP3      5671            0.0000000000
     25590      5736  TIP3      OH2             5.7648173187        2.6756373375      -36.7641193281  TIP3      5672            0.0000000000
     25591      5736  TIP3      H1              5.2670548523        1.8818866658      -36.4544049565  TIP3      5672            0.0000000000
     25592      5736  TIP3      H2              6.6072200588        2.5828172073      -36.2877910953  TIP3      5672            0.0000000000
     25593      5737  TIP3      OH2             7.7648179546        1.9791708743      -45.3054242171  TIP3      5673            0.0000000000
     25594      5737  TIP3      H1              7.4744023405        2.5360806339      -46.0472440076  TIP3      5673            0.0000000000
     25595      5737  TIP3      H2              7.8609536565        1.1274038891      -45.7769202038  TIP3      5673            0.0000000000
     25596      5738  TIP3      OH2            -1.1399586902        2.0555222052      -40.1747560644  TIP3      5674            0.0000000000
     25597      5738  TIP3      H1             -1.0006003072        2.4714479229      -39.3068639802  TIP3      5674            0.0000000000
     25598      5738  TIP3      H2             -1.5616393078        1.2176009384      -39.9237428088  TIP3      5674            0.0000000000
     25599      5739  TIP3      OH2             2.2190117377       -0.5279122191      -53.2956062704  TIP3      5675            0.0000000000
     25600      5739  TIP3      H1              1.7519234858       -0.9325967478      -52.5329293484  TIP3      5675            0.0000000000
     25601      5739  TIP3      H2              1.5167701726       -0.0599738769      -53.7679840347  TIP3      5675            0.0000000000
     25602      5740  TIP3      OH2            -4.4165016811       -0.8026063047      -46.1516165923  TIP3      5676            0.0000000000
     25603      5740  TIP3      H1             -3.7594554516       -0.8926005582      -45.4306751780  TIP3      5676            0.0000000000
     25604      5740  TIP3      H2             -3.9924104678       -1.2047125038      -46.9271222633  TIP3      5676            0.0000000000
     25605      5741  TIP3      OH2            -3.2235658029       -0.1076809919      -50.8135990248  TIP3      5677            0.0000000000
     25606      5741  TIP3      H1             -2.6737961309        0.4742844354      -51.3743979277  TIP3      5677            0.0000000000
     25607      5741  TIP3      H2             -3.8895394584        0.5410425293      -50.5039308870  TIP3      5677            0.0000000000
     25608      5742  TIP3      OH2             6.9450065595        3.5176336920      -40.8258568491  TIP3      5678            0.0000000000
     25609      5742  TIP3      H1              7.3516323932        2.8187982532      -41.3855839237  TIP3      5678            0.0000000000
     25610      5742  TIP3      H2              6.4667324620        3.0032914030      -40.1502190961  TIP3      5678            0.0000000000
     25611      5743  TIP3      OH2             3.7835359874       -0.4576890333      -45.9446812038  TIP3      5679            0.0000000000
     25612      5743  TIP3      H1              2.8462828299       -0.4914062283      -45.6754720619  TIP3      5679            0.0000000000
     25613      5743  TIP3      H2              4.2475015238       -0.6983397519      -45.1273961197  TIP3      5679            0.0000000000
     25614      5744  TIP3      OH2            -1.4278617328        1.0589119502      -47.0731939675  TIP3      5680            0.0000000000
     25615      5744  TIP3      H1             -2.3030951230        1.2324144954      -47.4755447203  TIP3      5680            0.0000000000
     25616      5744  TIP3      H2             -1.1524927876        0.2240685884      -47.4991422030  TIP3      5680            0.0000000000
     25617      5745  TIP3      OH2             2.2039266255        1.1313829132      -49.4352744201  TIP3      5681            0.0000000000
     25618      5745  TIP3      H1              3.1664386127        1.2227131205      -49.3082941796  TIP3      5681            0.0000000000
     25619      5745  TIP3      H2              1.9645155876        1.8028118564      -50.1015414944  TIP3      5681            0.0000000000
     25620      5746  TIP3      OH2             8.1802949612       -1.2273984318      -42.7283986498  TIP3      5682            0.0000000000
     25621      5746  TIP3      H1              7.5014501155       -1.2206831666      -42.0186930973  TIP3      5682            0.0000000000
     25622      5746  TIP3      H2              7.6862687495       -1.5312989112      -43.5048494789  TIP3      5682            0.0000000000
     25623      5747  TIP3      OH2             0.9343737840        2.2856302915      -51.8665302285  TIP3      5683            0.0000000000
     25624      5747  TIP3      H1              0.3999072394        1.9007752717      -52.5816667403  TIP3      5683            0.0000000000
     25625      5747  TIP3      H2              1.7485662230        2.5075200763      -52.3460066567  TIP3      5683            0.0000000000
     25626      5748  TIP3      OH2            11.3486781323       14.3897157378      -36.3805744836  TIP3      5684            0.0000000000
     25627      5748  TIP3      H1             11.6231649353       14.7565154119      -37.2412569479  TIP3      5684            0.0000000000
     25628      5748  TIP3      H2             12.0777693158       14.7034538858      -35.8248065696  TIP3      5684            0.0000000000
     25629      5749  TIP3      OH2            -0.9669072194        6.8640021236      -36.8006108537  TIP3      5685            0.0000000000
     25630      5749  TIP3      H1             -0.2348305787        7.1019437858      -36.2055381872  TIP3      5685            0.0000000000
     25631      5749  TIP3      H2             -1.7262891167        6.8930921810      -36.1803818501  TIP3      5685            0.0000000000
     25632      5750  TIP3      OH2             5.0329747653        2.2736752325      -44.0611499863  TIP3      5686            0.0000000000
     25633      5750  TIP3      H1              5.6494003108        1.7556772638      -44.5883804583  TIP3      5686            0.0000000000
     25634      5750  TIP3      H2              4.8916525823        1.7161405869      -43.2843298682  TIP3      5686            0.0000000000
     25635      5751  TIP3      OH2             0.0436638526       -1.5801342828      -47.6178926756  TIP3      5687            0.0000000000
     25636      5751  TIP3      H1             -0.2912055813       -2.4955004403      -47.5826486106  TIP3      5687            0.0000000000
     25637      5751  TIP3      H2              0.8419854665       -1.6846801997      -48.1524927696  TIP3      5687            0.0000000000
     25638      5752  TIP3      OH2             3.6791430502        0.5826052417      -41.6361238154  TIP3      5688            0.0000000000
     25639      5752  TIP3      H1              2.8640487052        1.1211295581      -41.5690743277  TIP3      5688            0.0000000000
     25640      5752  TIP3      H2              4.2479142180        0.9600134355      -40.9422136657  TIP3      5688            0.0000000000
     25641      5753  TIP3      OH2             4.2687553529        6.8026552385      -49.9317510440  TIP3      5689            0.0000000000
     25642      5753  TIP3      H1              3.4630045941        6.3552793724      -50.2789995174  TIP3      5689            0.0000000000
     25643      5753  TIP3      H2              4.0153554665        6.9718891113      -49.0011464729  TIP3      5689            0.0000000000
     25644      5754  TIP3      OH2            11.4956030443        6.0494759768      -41.1381929042  TIP3      5690            0.0000000000
     25645      5754  TIP3      H1             12.0286759109        6.5371981114      -41.7950557527  TIP3      5690            0.0000000000
     25646      5754  TIP3      H2             10.6250230782        6.0469117479      -41.5852445852  TIP3      5690            0.0000000000
     25647      5755  TIP3      OH2             8.0512586884       -0.3581275292      -51.8065223568  TIP3      5691            0.0000000000
     25648      5755  TIP3      H1              7.1067342504       -0.1627888737      -51.9076434584  TIP3      5691            0.0000000000
     25649      5755  TIP3      H2              8.4647578718        0.4288028027      -51.3894048379  TIP3      5691            0.0000000000
     25650      5756  TIP3      OH2             5.7615658973        7.1218948070      -38.6981366348  TIP3      5692            0.0000000000
     25651      5756  TIP3      H1              5.4137932573        6.6601071882      -37.9275476160  TIP3      5692            0.0000000000
     25652      5756  TIP3      H2              5.4698375541        8.0283055968      -38.5576553243  TIP3      5692            0.0000000000
     25653      5757  TIP3      OH2             8.8074804289        1.6184832083      -50.1293002678  TIP3      5693            0.0000000000
     25654      5757  TIP3      H1              9.6879176670        1.3735569094      -49.7702554034  TIP3      5693            0.0000000000
     25655      5757  TIP3      H2              9.0004616988        2.3781996702      -50.6939454239  TIP3      5693            0.0000000000
     25656      5758  TIP3      OH2            -0.6103558094        6.2339735373      -44.1465110008  TIP3      5694            0.0000000000
     25657      5758  TIP3      H1              0.0307832922        6.1261205178      -44.8753654417  TIP3      5694            0.0000000000
     25658      5758  TIP3      H2             -0.5515973365        5.3867113662      -43.6723147942  TIP3      5694            0.0000000000
     25659      5759  TIP3      OH2             6.3451280360        8.2745844100      -50.9066841868  TIP3      5695            0.0000000000
     25660      5759  TIP3      H1              6.0000189051        9.1280774355      -50.5642820003  TIP3      5695            0.0000000000
     25661      5759  TIP3      H2              5.6190474912        7.6564392943      -50.6748367850  TIP3      5695            0.0000000000
     25662      5760  TIP3      OH2            -3.6344134395        4.6103015419      -38.8866476649  TIP3      5696            0.0000000000
     25663      5760  TIP3      H1             -3.4867413930        4.1562640075      -38.0328028810  TIP3      5696            0.0000000000
     25664      5760  TIP3      H2             -4.2565789456        4.0172177890      -39.3442066937  TIP3      5696            0.0000000000
     25665      5761  TIP3      OH2             3.3895697547        4.1842524675      -36.7278562763  TIP3      5697            0.0000000000
     25666      5761  TIP3      H1              3.0458427558        3.8251483435      -37.5615075163  TIP3      5697            0.0000000000
     25667      5761  TIP3      H2              4.3002680655        3.8262871265      -36.7312291456  TIP3      5697            0.0000000000
     25668      5762  TIP3      OH2             8.0975167938        9.5257816557      -38.7262920396  TIP3      5698            0.0000000000
     25669      5762  TIP3      H1              7.1716440488        9.6881634454      -38.9737759571  TIP3      5698            0.0000000000
     25670      5762  TIP3      H2              8.0434450805        9.8237355114      -37.7940039044  TIP3      5698            0.0000000000
     25671      5763  TIP3      OH2            13.7951434681        1.6861436684      -50.3868387430  TIP3      5699            0.0000000000
     25672      5763  TIP3      H1             13.1360560736        1.3534500111      -51.0342684701  TIP3      5699            0.0000000000
     25673      5763  TIP3      H2             13.7856525451        2.6369387125      -50.6187640339  TIP3      5699            0.0000000000
     25674      5764  TIP3      OH2            13.7260704809        7.5466145389      -37.5820923018  TIP3      5700            0.0000000000
     25675      5764  TIP3      H1             12.8299989654        7.7771897826      -37.9285114493  TIP3      5700            0.0000000000
     25676      5764  TIP3      H2             14.2596093974        7.4891110306      -38.4048677042  TIP3      5700            0.0000000000
     25677      5765  TIP3      OH2            11.9637893186       10.5063202518      -49.9951741475  TIP3      5701            0.0000000000
     25678      5765  TIP3      H1             11.6520968392        9.6677450280      -49.6337240367  TIP3      5701            0.0000000000
     25679      5765  TIP3      H2             12.3588255521       10.2721199974      -50.8509189870  TIP3      5701            0.0000000000
     25680      5766  TIP3      OH2             9.2502088355        5.3381874965      -42.8603652331  TIP3      5702            0.0000000000
     25681      5766  TIP3      H1              8.3093124613        5.1438072923      -43.0005724934  TIP3      5702            0.0000000000
     25682      5766  TIP3      H2              9.6793248341        4.5917793382      -43.3257217720  TIP3      5702            0.0000000000
     25683      5767  TIP3      OH2             1.7642450350        9.6821585336      -46.7457680347  TIP3      5703            0.0000000000
     25684      5767  TIP3      H1              2.2536575085       10.4957526519      -46.9564700398  TIP3      5703            0.0000000000
     25685      5767  TIP3      H2              0.8881292380        9.8992414802      -47.0935557149  TIP3      5703            0.0000000000
     25686      5768  TIP3      OH2            -2.4630859347        4.5031704714      -52.1820551577  TIP3      5704            0.0000000000
     25687      5768  TIP3      H1             -1.9015170655        5.1744923503      -51.7558207865  TIP3      5704            0.0000000000
     25688      5768  TIP3      H2             -3.3691911826        4.7981438679      -51.9568763300  TIP3      5704            0.0000000000
     25689      5769  TIP3      OH2             3.1435828050        7.3501027525      -47.2739071277  TIP3      5705            0.0000000000
     25690      5769  TIP3      H1              2.8076640712        8.2566588509      -47.1504916182  TIP3      5705            0.0000000000
     25691      5769  TIP3      H2              2.4723826115        6.8239951314      -46.7964826906  TIP3      5705            0.0000000000
     25692      5770  TIP3      OH2             3.6086290297       11.5329110057      -40.7947170573  TIP3      5706            0.0000000000
     25693      5770  TIP3      H1              4.1048035297       12.3054441223      -41.1060770619  TIP3      5706            0.0000000000
     25694      5770  TIP3      H2              4.2416482280       11.1629150425      -40.1522393955  TIP3      5706            0.0000000000
     25695      5771  TIP3      OH2             1.8460264216       12.3138810528      -47.7429816199  TIP3      5707            0.0000000000
     25696      5771  TIP3      H1              0.8865256705       12.4628074112      -47.5775834630  TIP3      5707            0.0000000000
     25697      5771  TIP3      H2              2.2249935649       13.1481143925      -47.4092856237  TIP3      5707            0.0000000000
     25698      5772  TIP3      OH2             7.0918805777        7.4869631215      -41.2253773027  TIP3      5708            0.0000000000
     25699      5772  TIP3      H1              6.8248969095        7.3148038644      -40.2970155589  TIP3      5708            0.0000000000
     25700      5772  TIP3      H2              7.7546967283        6.7955277983      -41.3925616204  TIP3      5708            0.0000000000
     25701      5773  TIP3      OH2             9.5088900507        8.6351324584      -52.1227614763  TIP3      5709            0.0000000000
     25702      5773  TIP3      H1              9.7964693260        8.1328658213      -51.3340290232  TIP3      5709            0.0000000000
     25703      5773  TIP3      H2              8.5599841134        8.4213531070      -52.0702880913  TIP3      5709            0.0000000000
     25704      5774  TIP3      OH2             9.9812379986       12.0906750598      -38.7377892238  TIP3      5710            0.0000000000
     25705      5774  TIP3      H1              9.2643258756       11.6085732671      -39.1905134625  TIP3      5710            0.0000000000
     25706      5774  TIP3      H2             10.1432539511       12.7908731957      -39.4081524422  TIP3      5710            0.0000000000
     25707      5775  TIP3      OH2            13.9369235259       12.9520749433      -51.8665651504  TIP3      5711            0.0000000000
     25708      5775  TIP3      H1             14.6147984479       13.6184627276      -52.0883742034  TIP3      5711            0.0000000000
     25709      5775  TIP3      H2             13.2222278549       13.5561997124      -51.5723447881  TIP3      5711            0.0000000000
     25710      5776  TIP3      OH2            -1.9708388399       -0.6538848156      -39.3358677995  TIP3      5712            0.0000000000
     25711      5776  TIP3      H1             -2.8770416707       -0.2980896581      -39.3451410293  TIP3      5712            0.0000000000
     25712      5776  TIP3      H2             -2.0820180797       -1.4956039073      -38.8661460572  TIP3      5712            0.0000000000
     25713      5777  TIP3      OH2            10.2516984577        7.2392369578      -49.8740725888  TIP3      5713            0.0000000000
     25714      5777  TIP3      H1             10.0113277413        6.4389003989      -49.3568825187  TIP3      5713            0.0000000000
     25715      5777  TIP3      H2             11.2103549644        7.2579313137      -49.7201618720  TIP3      5713            0.0000000000
     25716      5778  TIP3      OH2            -2.3727634077       11.1053285419      -40.9202010252  TIP3      5714            0.0000000000
     25717      5778  TIP3      H1             -2.0192273208       10.2044448450      -40.9062216536  TIP3      5714            0.0000000000
     25718      5778  TIP3      H2             -2.1081055922       11.4268531527      -40.0503974756  TIP3      5714            0.0000000000
     25719      5779  TIP3      OH2             3.6362752298        9.6802106102      -53.6049183186  TIP3      5715            0.0000000000
     25720      5779  TIP3      H1              3.6962403866        8.9281457990      -54.2170410136  TIP3      5715            0.0000000000
     25721      5779  TIP3      H2              3.1351768204        9.2533429622      -52.8760036159  TIP3      5715            0.0000000000
     25722      5780  TIP3      OH2             2.3525980471        9.1924630303      -51.1533545624  TIP3      5716            0.0000000000
     25723      5780  TIP3      H1              2.6917566843        8.6757500865      -50.4115863248  TIP3      5716            0.0000000000
     25724      5780  TIP3      H2              2.4816867596       10.1148550248      -50.8317847745  TIP3      5716            0.0000000000
     25725      5781  TIP3      OH2            -1.0565829786        6.4388258021      -50.6762839482  TIP3      5717            0.0000000000
     25726      5781  TIP3      H1             -1.7914042366        6.8457091454      -50.1717421207  TIP3      5717            0.0000000000
     25727      5781  TIP3      H2             -0.5707142722        7.2158542638      -51.0057414001  TIP3      5717            0.0000000000
     25728      5782  TIP3      OH2             6.7658809202       -0.8710016806      -40.3354280338  TIP3      5718            0.0000000000
     25729      5782  TIP3      H1              7.5161081706       -0.8073623760      -39.7347654260  TIP3      5718            0.0000000000
     25730      5782  TIP3      H2              6.3875007186       -1.7452975542      -40.1119394919  TIP3      5718            0.0000000000
     25731      5783  TIP3      OH2             7.4476525458       -1.3014134199      -49.2795818908  TIP3      5719            0.0000000000
     25732      5783  TIP3      H1              7.7562726831       -0.9044519966      -50.1167085139  TIP3      5719            0.0000000000
     25733      5783  TIP3      H2              8.0781194366       -0.9127256882      -48.6569893854  TIP3      5719            0.0000000000
     25734      5784  TIP3      OH2             5.1839821333       10.8463710876      -50.4939745092  TIP3      5720            0.0000000000
     25735      5784  TIP3      H1              4.3642870077       11.3758317970      -50.4018490809  TIP3      5720            0.0000000000
     25736      5784  TIP3      H2              5.7314601788       11.4228811380      -51.0448630999  TIP3      5720            0.0000000000
     25737      5785  TIP3      OH2             4.7360442400        0.4208815728      -48.4537716448  TIP3      5721            0.0000000000
     25738      5785  TIP3      H1              5.4927353983        1.0379454977      -48.3955669362  TIP3      5721            0.0000000000
     25739      5785  TIP3      H2              4.4495585451        0.2979671713      -47.5264560302  TIP3      5721            0.0000000000
     25740      5786  TIP3      OH2             5.3028419247        1.4755390716      -39.2517383427  TIP3      5722            0.0000000000
     25741      5786  TIP3      H1              5.3707920164        2.0149850197      -38.4391860403  TIP3      5722            0.0000000000
     25742      5786  TIP3      H2              5.9594667836        0.7743242018      -39.1652997493  TIP3      5722            0.0000000000
     25743      5787  TIP3      OH2             5.5378247397       -2.5295052322      -47.6204605708  TIP3      5723            0.0000000000
     25744      5787  TIP3      H1              5.2272179385       -1.8897884244      -46.9629103078  TIP3      5723            0.0000000000
     25745      5787  TIP3      H2              6.2628637161       -1.9875722673      -48.0324336187  TIP3      5723            0.0000000000
     25746      5788  TIP3      OH2             2.6198893056       11.8697410181      -50.4381945276  TIP3      5724            0.0000000000
     25747      5788  TIP3      H1              2.6811922791       12.6768136792      -51.0048176557  TIP3      5724            0.0000000000
     25748      5788  TIP3      H2              2.3106437969       12.2472229593      -49.5829065757  TIP3      5724            0.0000000000
     25749      5789  TIP3      OH2             1.2282615680       -1.3928026939      -50.8744063354  TIP3      5725            0.0000000000
     25750      5789  TIP3      H1              1.1791288849       -0.5029605681      -50.4726108447  TIP3      5725            0.0000000000
     25751      5789  TIP3      H2              2.1359003174       -1.6483201175      -50.6088329588  TIP3      5725            0.0000000000
     25752      5790  TIP3      OH2            11.4379404660       -0.6730652088      -38.4126000263  TIP3      5726            0.0000000000
     25753      5790  TIP3      H1             10.5205584900       -0.3327864318      -38.5520820256  TIP3      5726            0.0000000000
     25754      5790  TIP3      H2             11.7552419603       -0.7018060115      -39.3320106723  TIP3      5726            0.0000000000
     25755      5791  TIP3      OH2            10.0760999192        3.1206974472      -44.4415152406  TIP3      5727            0.0000000000
     25756      5791  TIP3      H1              9.2528284991        2.6633605499      -44.6979996093  TIP3      5727            0.0000000000
     25757      5791  TIP3      H2             10.5730747315        2.4409826839      -43.9330893946  TIP3      5727            0.0000000000
     25758      5792  TIP3      OH2            -0.5466421774        9.0473807979      -51.8529721186  TIP3      5728            0.0000000000
     25759      5792  TIP3      H1              0.1468855479        9.6281477931      -51.5018273235  TIP3      5728            0.0000000000
     25760      5792  TIP3      H2             -0.0209068113        8.5592265603      -52.5176537030  TIP3      5728            0.0000000000
     25761      5793  TIP3      OH2            -2.2039468535        1.7234935544      -52.6958237163  TIP3      5729            0.0000000000
     25762      5793  TIP3      H1             -2.1594531906        2.6737228780      -52.4551981590  TIP3      5729            0.0000000000
     25763      5793  TIP3      H2             -3.1015020857        1.5937066731      -53.0119649872  TIP3      5729            0.0000000000
     25764      5794  TIP3      OH2            11.1455361114       12.4000927956      -42.7668126440  TIP3      5730            0.0000000000
     25765      5794  TIP3      H1             11.0697978425       13.0740515944      -43.4712007964  TIP3      5730            0.0000000000
     25766      5794  TIP3      H2             12.1088811970       12.4352232487      -42.5877173513  TIP3      5730            0.0000000000
     25767      5795  TIP3      OH2            -1.3825579707       -3.4975513630      -43.9082078715  TIP3      5731            0.0000000000
     25768      5795  TIP3      H1             -1.5397021811       -3.4907559944      -44.8772607398  TIP3      5731            0.0000000000
     25769      5795  TIP3      H2             -1.7665687052       -4.3695309215      -43.6755400164  TIP3      5731            0.0000000000
     25770      5796  TIP3      OH2            -2.4296765647       10.4350834209      -47.7657716944  TIP3      5732            0.0000000000
     25771      5796  TIP3      H1             -3.2939237930       10.8536169526      -47.8538870841  TIP3      5732            0.0000000000
     25772      5796  TIP3      H2             -1.9767055740       10.8544489379      -48.5106095635  TIP3      5732            0.0000000000
     25773      5797  TIP3      OH2            -3.2549137614       13.0910345673      -36.5333199113  TIP3      5733            0.0000000000
     25774      5797  TIP3      H1             -2.6277516702       12.9164488956      -35.8013484581  TIP3      5733            0.0000000000
     25775      5797  TIP3      H2             -3.6130707398       12.2008241828      -36.6953928705  TIP3      5733            0.0000000000
     25776      5798  TIP3      OH2             1.4685005959       12.0073952307      -34.9213146938  TIP3      5734            0.0000000000
     25777      5798  TIP3      H1              2.2211994374       11.5023821039      -34.5718129362  TIP3      5734            0.0000000000
     25778      5798  TIP3      H2              1.4412044347       11.7118465838      -35.8489345494  TIP3      5734            0.0000000000
     25779      5799  TIP3      OH2             5.6338828087       11.5250597661      -53.4887905428  TIP3      5735            0.0000000000
     25780      5799  TIP3      H1              4.9215394748       10.8659754093      -53.3161105258  TIP3      5735            0.0000000000
     25781      5799  TIP3      H2              6.3367489499       10.9154987258      -53.7584175597  TIP3      5735            0.0000000000
     25782      5800  TIP3      OH2             7.9375993604       10.3955015065      -36.1360437268  TIP3      5736            0.0000000000
     25783      5800  TIP3      H1              7.6272193688        9.5073094667      -35.8553246325  TIP3      5736            0.0000000000
     25784      5800  TIP3      H2              8.7205999414       10.5135752367      -35.5632073760  TIP3      5736            0.0000000000
     25785      5801  TIP3      OH2            10.1721291912       11.2412349728      -53.3233873053  TIP3      5737            0.0000000000
     25786      5801  TIP3      H1             10.4575745843       10.4716498030      -52.8034916928  TIP3      5737            0.0000000000
     25787      5801  TIP3      H2             10.9394575807       11.4344658462      -53.8796413070  TIP3      5737            0.0000000000
     25788      5802  TIP3      OH2            -3.3480906343        6.8356425434      -35.5046079293  TIP3      5738            0.0000000000
     25789      5802  TIP3      H1             -3.1699494081        5.9248894291      -35.7991292096  TIP3      5738            0.0000000000
     25790      5802  TIP3      H2             -4.0586309221        7.0977773328      -36.1131104472  TIP3      5738            0.0000000000
     25791      5803  TIP3      OH2             1.0459003333        7.1997668078      -53.5359084631  TIP3      5739            0.0000000000
     25792      5803  TIP3      H1              1.1809963139        6.4546092769      -52.9310721737  TIP3      5739            0.0000000000
     25793      5803  TIP3      H2              1.8178745631        7.0825283652      -54.1241411214  TIP3      5739            0.0000000000
     25794      5804  TIP3      OH2             3.3989520827        6.8462464599      -36.1384799823  TIP3      5740            0.0000000000
     25795      5804  TIP3      H1              3.0734094150        7.1832361080      -36.9972763606  TIP3      5740            0.0000000000
     25796      5804  TIP3      H2              3.4456077241        5.8685550578      -36.2615650391  TIP3      5740            0.0000000000
     25797      5805  TIP3      OH2             6.4919001826        8.3236715898      -53.7260917639  TIP3      5741            0.0000000000
     25798      5805  TIP3      H1              6.2198742704        8.3730538260      -52.7953468235  TIP3      5741            0.0000000000
     25799      5805  TIP3      H2              6.3169551180        7.3672218995      -53.8954881215  TIP3      5741            0.0000000000
     25800      5806  TIP3      OH2             9.0836915381        6.6824500840      -38.7305036040  TIP3      5742            0.0000000000
     25801      5806  TIP3      H1              9.8923606394        7.2412932522      -38.7624718534  TIP3      5742            0.0000000000
     25802      5806  TIP3      H2              8.4090210214        7.3790075734      -38.7134286790  TIP3      5742            0.0000000000
     25803      5807  TIP3      OH2            -2.3658910894        4.0785387874      -36.1233549999  TIP3      5743            0.0000000000
     25804      5807  TIP3      H1             -1.9356376608        3.2198997064      -36.1983254051  TIP3      5743            0.0000000000
     25805      5807  TIP3      H2             -2.5897888033        4.1000841200      -35.1784381870  TIP3      5743            0.0000000000
     25806      5808  TIP3      OH2             2.2523898522        5.2208607544      -51.0327464292  TIP3      5744            0.0000000000
     25807      5808  TIP3      H1              1.7183490703        4.6656986259      -50.4455896602  TIP3      5744            0.0000000000
     25808      5808  TIP3      H2              2.5669302346        4.5680900430      -51.6989527395  TIP3      5744            0.0000000000
     25809      5809  TIP3      OH2             1.5030833180        3.0045653306      -38.8011668946  TIP3      5745            0.0000000000
     25810      5809  TIP3      H1              0.9155090802        3.7348393653      -38.5516100639  TIP3      5745            0.0000000000
     25811      5809  TIP3      H2              1.9323988443        3.3836494767      -39.5881108632  TIP3      5745            0.0000000000
     25812      5810  TIP3      OH2             3.3342701591        3.4518423038      -52.8786801729  TIP3      5746            0.0000000000
     25813      5810  TIP3      H1              3.1963211512        3.3845027572      -53.8458640432  TIP3      5746            0.0000000000
     25814      5810  TIP3      H2              4.3099876083        3.4738326948      -52.7956985903  TIP3      5746            0.0000000000
     25815      5811  TIP3      OH2             6.6079823866        5.6077225952      -35.4242665443  TIP3      5747            0.0000000000
     25816      5811  TIP3      H1              7.5534544835        5.5440644801      -35.6041431455  TIP3      5747            0.0000000000
     25817      5811  TIP3      H2              6.4251979855        4.8259945373      -34.8756862916  TIP3      5747            0.0000000000
     25818      5812  TIP3      OH2            12.6111038321        5.7539999654      -53.4760713059  TIP3      5748            0.0000000000
     25819      5812  TIP3      H1             12.4743895019        5.3926302689      -54.3714324801  TIP3      5748            0.0000000000
     25820      5812  TIP3      H2             12.7343490374        6.7151537155      -53.6492735084  TIP3      5748            0.0000000000
     25821      5813  TIP3      OH2             1.9304100451        0.3965680466      -37.7623766590  TIP3      5749            0.0000000000
     25822      5813  TIP3      H1              2.0470592022       -0.3048929317      -38.4324865774  TIP3      5749            0.0000000000
     25823      5813  TIP3      H2              1.8726689220        1.2133161546      -38.2973280768  TIP3      5749            0.0000000000
     25824      5814  TIP3      OH2             2.3361813679       -1.2370818254      -40.1742535853  TIP3      5750            0.0000000000
     25825      5814  TIP3      H1              2.8315121412       -0.7575164948      -40.8816847208  TIP3      5750            0.0000000000
     25826      5814  TIP3      H2              1.4318656598       -1.2870023997      -40.5575406149  TIP3      5750            0.0000000000
     25827      5815  TIP3      OH2             3.8538961586        4.3032845506      -39.9323419653  TIP3      5751            0.0000000000
     25828      5815  TIP3      H1              4.6167070942        4.1287067077      -40.4918644028  TIP3      5751            0.0000000000
     25829      5815  TIP3      H2              3.4806060107        5.1234270561      -40.2956912035  TIP3      5751            0.0000000000
     25830      5816  TIP3      OH2             8.2488422810        2.0013284086      -34.9984872874  TIP3      5752            0.0000000000
     25831      5816  TIP3      H1              8.5026458812        1.0677199026      -35.0731830656  TIP3      5752            0.0000000000
     25832      5816  TIP3      H2              9.1077944269        2.4553086349      -34.9425567924  TIP3      5752            0.0000000000
     25833      5817  TIP3      OH2             9.6155472068        4.8227379534      -36.7699832776  TIP3      5753            0.0000000000
     25834      5817  TIP3      H1              9.3511845639        5.5266621042      -37.4024628141  TIP3      5753            0.0000000000
     25835      5817  TIP3      H2             10.5754177758        4.7883819907      -36.9643758659  TIP3      5753            0.0000000000
     25836      5818  TIP3      OH2             0.3845530200        1.6454986888      -35.8154493161  TIP3      5754            0.0000000000
     25837      5818  TIP3      H1             -0.3825601509        1.0602156498      -35.9642548275  TIP3      5754            0.0000000000
     25838      5818  TIP3      H2              1.0292286600        1.2729515632      -36.4479328377  TIP3      5754            0.0000000000
     25839      5819  TIP3      OH2             3.1215370440       -3.7889954490      -39.8171907681  TIP3      5755            0.0000000000
     25840      5819  TIP3      H1              2.9038936435       -2.8304036152      -39.8963245493  TIP3      5755            0.0000000000
     25841      5819  TIP3      H2              2.3751345603       -4.1740996440      -40.3133197601  TIP3      5755            0.0000000000
     25842      5820  TIP3      OH2             4.3875803178        0.5424816025      -36.1341341403  TIP3      5756            0.0000000000
     25843      5820  TIP3      H1              4.0465168392        0.2991642076      -35.2493573899  TIP3      5756            0.0000000000
     25844      5820  TIP3      H2              3.6215298901        0.3288964645      -36.6962641058  TIP3      5756            0.0000000000
     25845      5821  TIP3      OH2             7.1122680698       -0.2994846765      -37.0112957477  TIP3      5757            0.0000000000
     25846      5821  TIP3      H1              6.1466905653       -0.2449649784      -36.9313386839  TIP3      5757            0.0000000000
     25847      5821  TIP3      H2              7.3535422928       -0.9525424955      -36.3232535178  TIP3      5757            0.0000000000
     25848      5822  TIP3      OH2             8.6690865506       -1.7025392873      -35.1868839955  TIP3      5758            0.0000000000
     25849      5822  TIP3      H1              8.6541734345       -2.6797895278      -35.1352620858  TIP3      5758            0.0000000000
     25850      5822  TIP3      H2              8.4643653015       -1.4035734495      -34.2786187730  TIP3      5758            0.0000000000
     25851      5823  TIP3      OH2            -1.5395925968       -0.3957877915      -36.0295391445  TIP3      5759            0.0000000000
     25852      5823  TIP3      H1             -1.3128298713       -1.1475006098      -36.6035129189  TIP3      5759            0.0000000000
     25853      5823  TIP3      H2             -1.6637348454       -0.8319589396      -35.1639035308  TIP3      5759            0.0000000000
     25854      5824  TIP3      OH2             3.3321116530       -4.3605631136      -37.0959919993  TIP3      5760            0.0000000000
     25855      5824  TIP3      H1              3.9965449898       -5.0772832528      -37.0882517659  TIP3      5760            0.0000000000
     25856      5824  TIP3      H2              3.2057240721       -4.2702596374      -38.0616008177  TIP3      5760            0.0000000000
     25857      5825  TIP3      OH2             3.6904357569       -2.7845337582      -34.9328481400  TIP3      5761            0.0000000000
     25858      5825  TIP3      H1              3.5046134050       -3.3026998439      -35.7553018102  TIP3      5761            0.0000000000
     25859      5825  TIP3      H2              3.1028928864       -2.0097499834      -35.0414370055  TIP3      5761            0.0000000000
     25860      5826  TIP3      OH2             3.1429981196       14.1544304298      -51.7716452605  TIP3      5762            0.0000000000
     25861      5826  TIP3      H1              4.1126461002       14.1995076561      -51.7131403793  TIP3      5762            0.0000000000
     25862      5826  TIP3      H2              3.0192046083       14.7152695392      -52.5495481891  TIP3      5762            0.0000000000
     25863      5827  TIP3      OH2            -3.3181374465        8.6930164577      -52.3088386105  TIP3      5763            0.0000000000
     25864      5827  TIP3      H1             -2.3536805397        8.7915245090      -52.1486199070  TIP3      5763            0.0000000000
     25865      5827  TIP3      H2             -3.2870555256        8.0703002163      -53.0745613589  TIP3      5763            0.0000000000
     25866      5828  TIP3      OH2            -4.5061990655       14.0695839838      -47.3700836785  TIP3      5764            0.0000000000
     25867      5828  TIP3      H1             -5.2376105690       13.5793022973      -47.8066831233  TIP3      5764            0.0000000000
     25868      5828  TIP3      H2             -4.2295365780       13.4356709086      -46.6824999586  TIP3      5764            0.0000000000
     25869      5829  TIP3      OH2            -3.6823763392       12.2325659314      -45.4650382770  TIP3      5765            0.0000000000
     25870      5829  TIP3      H1             -4.0505190533       11.3640910836      -45.2494049759  TIP3      5765            0.0000000000
     25871      5829  TIP3      H2             -3.4476664073       12.5706032101      -44.5843195043  TIP3      5765            0.0000000000
     25872      5830  TIP3      OH2            13.8673259625       13.0365047770      -42.5688919984  TIP3      5766            0.0000000000
     25873      5830  TIP3      H1             13.9086926107       13.1695753375      -41.6060153499  TIP3      5766            0.0000000000
     25874      5830  TIP3      H2             14.5671245040       13.6265624245      -42.8638232091  TIP3      5766            0.0000000000
     25875      5831  TIP3      OH2            13.4297405756       12.6163173936      -39.6198151393  TIP3      5767            0.0000000000
     25876      5831  TIP3      H1             12.9556704057       11.8526841604      -40.0071002033  TIP3      5767            0.0000000000
     25877      5831  TIP3      H2             13.8718246559       12.1722524783      -38.8800784669  TIP3      5767            0.0000000000
     25878      5832  TIP3      OH2            11.8674431076        8.3333625405      -34.9168239734  TIP3      5768            0.0000000000
     25879      5832  TIP3      H1             10.9595744114        8.3280626239      -34.5557382664  TIP3      5768            0.0000000000
     25880      5832  TIP3      H2             12.2373769238        9.1516598827      -34.5373070110  TIP3      5768            0.0000000000
     25881      5833  TIP3      OH2            13.1671739832        6.7056583113      -49.5220188588  TIP3      5769            0.0000000000
     25882      5833  TIP3      H1             14.0474236513        7.0842761390      -49.3411369795  TIP3      5769            0.0000000000
     25883      5833  TIP3      H2             13.1551500661        5.9898735650      -48.8517280422  TIP3      5769            0.0000000000
     25884      5834  TIP3      OH2            13.5315687453        4.7690577915      -47.6231534843  TIP3      5770            0.0000000000
     25885      5834  TIP3      H1             12.7666462432        4.2884816357      -47.2273938628  TIP3      5770            0.0000000000
     25886      5834  TIP3      H2             14.1346161377        4.8654244643      -46.8552291164  TIP3      5770            0.0000000000
     25887      5835  TIP3      OH2            13.3019271909        7.4292760610      -42.6317048412  TIP3      5771            0.0000000000
     25888      5835  TIP3      H1             14.0981087994        7.0358727240      -43.0290620839  TIP3      5771            0.0000000000
     25889      5835  TIP3      H2             13.4553165396        8.3828881438      -42.8024408342  TIP3      5771            0.0000000000
     25890      5836  TIP3      OH2            11.8649292270       10.3522403120      -40.3705794675  TIP3      5772            0.0000000000
     25891      5836  TIP3      H1             11.1728749486       10.7029992984      -39.7893674647  TIP3      5772            0.0000000000
     25892      5836  TIP3      H2             11.3240989215        9.9663340121      -41.0924519920  TIP3      5772            0.0000000000
     25893      5837  TIP3      OH2            13.8786090763        4.6221574463      -51.2532921824  TIP3      5773            0.0000000000
     25894      5837  TIP3      H1             13.2594631481        4.9026763654      -51.9556797928  TIP3      5773            0.0000000000
     25895      5837  TIP3      H2             13.7222647247        5.3089431284      -50.5784493538  TIP3      5773            0.0000000000
     25896      5838  TIP3      OH2            12.2318846176        1.8127974751      -52.7582752752  TIP3      5774            0.0000000000
     25897      5838  TIP3      H1             12.2981164136        2.4230938101      -53.4931062623  TIP3      5774            0.0000000000
     25898      5838  TIP3      H2             12.0416951974        0.9480326188      -53.1652192082  TIP3      5774            0.0000000000
     25899      5839  TIP3      OH2            11.3677572307        3.2821839470      -46.9909469378  TIP3      5775            0.0000000000
     25900      5839  TIP3      H1             11.2302706318        2.3199363128      -47.1505853009  TIP3      5775            0.0000000000
     25901      5839  TIP3      H2             11.0493056077        3.3894302574      -46.0714860324  TIP3      5775            0.0000000000
     25902      5840  TIP3      OH2            -3.6202564731        5.3212241786      -42.9686585570  TIP3      5776            0.0000000000
     25903      5840  TIP3      H1             -3.4630825333        5.2292961798      -43.9355443006  TIP3      5776            0.0000000000
     25904      5840  TIP3      H2             -2.7246423148        5.1137091401      -42.6320449018  TIP3      5776            0.0000000000
     25905      5841  TIP3      OH2            12.2517729251        5.1848671029      -37.3317100314  TIP3      5777            0.0000000000
     25906      5841  TIP3      H1             12.8587279886        4.4232592781      -37.2237377417  TIP3      5777            0.0000000000
     25907      5841  TIP3      H2             12.8569748484        5.9563111380      -37.3472686691  TIP3      5777            0.0000000000
     25908      5842  TIP3      OH2            13.7394881930        3.0481973667      -36.7007486903  TIP3      5778            0.0000000000
     25909      5842  TIP3      H1             12.8479606410        2.6629069113      -36.8410973601  TIP3      5778            0.0000000000
     25910      5842  TIP3      H2             14.3001282874        2.2500364490      -36.7642718890  TIP3      5778            0.0000000000
     25911      5843  TIP3      OH2            11.5028799461       -0.8689226173      -53.7544496440  TIP3      5779            0.0000000000
     25912      5843  TIP3      H1             12.0025598364       -1.0690925211      -52.9281117347  TIP3      5779            0.0000000000
     25913      5843  TIP3      H2             10.6224855301       -1.0574114102      -53.4011711176  TIP3      5779            0.0000000000
     25914      5844  TIP3      OH2            11.0268476965        0.9417878826      -48.3250327428  TIP3      5780            0.0000000000
     25915      5844  TIP3      H1             11.1688462259       -0.0283759127      -48.4662614146  TIP3      5780            0.0000000000
     25916      5844  TIP3      H2             11.7266273887        1.2050008848      -48.9461841589  TIP3      5780            0.0000000000
     25917      5845  TIP3      OH2            11.6825895713        1.3748661467      -43.1065717473  TIP3      5781            0.0000000000
     25918      5845  TIP3      H1             12.6462204053        1.5810188939      -43.1407673141  TIP3      5781            0.0000000000
     25919      5845  TIP3      H2             11.5110562888        1.4969747281      -42.1627435395  TIP3      5781            0.0000000000
     25920      5846  TIP3      OH2            11.7479287383        2.0657762506      -40.3650410399  TIP3      5782            0.0000000000
     25921      5846  TIP3      H1             10.8589648862        2.3507702890      -40.0672893234  TIP3      5782            0.0000000000
     25922      5846  TIP3      H2             12.1806899117        2.9168839447      -40.5998282914  TIP3      5782            0.0000000000
     25923      5847  TIP3      OH2            -3.9866475272        0.6214608658      -36.7784419485  TIP3      5783            0.0000000000
     25924      5847  TIP3      H1             -3.0516098615        0.3778621627      -36.6124407454  TIP3      5783            0.0000000000
     25925      5847  TIP3      H2             -4.4581526621       -0.2158510758      -36.5771913985  TIP3      5783            0.0000000000
     25926      5848  TIP3      OH2            14.0381968841       -3.8347552564      -35.0414002963  TIP3      5784            0.0000000000
     25927      5848  TIP3      H1             14.3883309122       -4.5077562952      -35.6510362905  TIP3      5784            0.0000000000
     25928      5848  TIP3      H2             14.1012115790       -3.0378728867      -35.6053656997  TIP3      5784            0.0000000000
     25929      5849  TIP3      OH2            11.2853959557       -2.0661015903      -47.9894318933  TIP3      5785            0.0000000000
     25930      5849  TIP3      H1             11.9970261178       -2.5477514666      -47.5403455785  TIP3      5785            0.0000000000
     25931      5849  TIP3      H2             11.2119812868       -2.4537949908      -48.8827360001  TIP3      5785            0.0000000000
     25932      5850  TIP3      OH2            -2.8066735708       -1.0895834889      -43.9834891138  TIP3      5786            0.0000000000
     25933      5850  TIP3      H1             -2.3742238278       -1.9283125554      -43.7250900013  TIP3      5786            0.0000000000
     25934      5850  TIP3      H2             -2.2378769062       -0.4124244465      -43.6018911247  TIP3      5786            0.0000000000
     25935      5851  TIP3      OH2            -4.4832321321        1.9177771343      -42.9246228309  TIP3      5787            0.0000000000
     25936      5851  TIP3      H1             -3.9418481984        1.6419090729      -43.6914183819  TIP3      5787            0.0000000000
     25937      5851  TIP3      H2             -4.0120350845        2.7244067588      -42.6885599554  TIP3      5787            0.0000000000
     25938      5852  TIP3      OH2            13.5322588662       -1.7457364285      -36.6831757120  TIP3      5788            0.0000000000
     25939      5852  TIP3      H1             12.5980771080       -1.4654913967      -36.7186370840  TIP3      5788            0.0000000000
     25940      5852  TIP3      H2             13.5384495887       -2.3168971060      -37.4678325587  TIP3      5788            0.0000000000
     25941      5853  TIP3      OH2            13.7384567007       -2.0291594075      -52.0273421834  TIP3      5789            0.0000000000
     25942      5853  TIP3      H1             14.1358137221       -2.6675785823      -52.6404159316  TIP3      5789            0.0000000000
     25943      5853  TIP3      H2             14.3199121046       -1.2634558948      -51.9921969753  TIP3      5789            0.0000000000
     25944      5854  TIP3      OH2            -4.1436721991       -1.7993160816      -48.8572099824  TIP3      5790            0.0000000000
     25945      5854  TIP3      H1             -5.0949546831       -1.6887014209      -49.0209535095  TIP3      5790            0.0000000000
     25946      5854  TIP3      H2             -3.7583793141       -1.3267329713      -49.6136759621  TIP3      5790            0.0000000000
     25947      5855  TIP3      OH2            10.5778830816       13.1147669651      -46.9105826870  TIP3      5791            0.0000000000
     25948      5855  TIP3      H1             11.2663394852       12.8324621328      -47.5399215535  TIP3      5791            0.0000000000
     25949      5855  TIP3      H2             11.0795146178       13.6199431116      -46.2516827861  TIP3      5791            0.0000000000
     25950      5856  TIP3      OH2            -4.2166265167       -3.1923350151      -40.5779390059  TIP3      5792            0.0000000000
     25951      5856  TIP3      H1             -4.8966072635       -3.3788757826      -39.9092839179  TIP3      5792            0.0000000000
     25952      5856  TIP3      H2             -4.6669906901       -2.5149439034      -41.1279076100  TIP3      5792            0.0000000000
     25953      5857  TIP3      OH2            -1.9482912091        9.9910027674      -36.4311601761  TIP3      5793            0.0000000000
     25954      5857  TIP3      H1             -2.7848322131       10.2371142522      -36.8606799167  TIP3      5793            0.0000000000
     25955      5857  TIP3      H2             -2.2118464401        9.9126295472      -35.5116234039  TIP3      5793            0.0000000000
     25956      5858  TIP3      OH2             0.9268571177       11.0332731155      -40.1371384065  TIP3      5794            0.0000000000
     25957      5858  TIP3      H1              0.6529967426       11.9327837998      -40.3836504611  TIP3      5794            0.0000000000
     25958      5858  TIP3      H2              1.8597584048       11.0907805618      -40.4282603666  TIP3      5794            0.0000000000
     25959      5859  TIP3      OH2             5.2463305169       12.4479648471      -37.2577753523  TIP3      5795            0.0000000000
     25960      5859  TIP3      H1              5.3594883813       12.0922667052      -36.3472597260  TIP3      5795            0.0000000000
     25961      5859  TIP3      H2              6.1529057111       12.7657922698      -37.4711011307  TIP3      5795            0.0000000000
     25962      5860  TIP3      OH2             7.5310157047       13.7180105463      -37.9165871935  TIP3      5796            0.0000000000
     25963      5860  TIP3      H1              8.2786933644       13.1582679974      -38.1594739078  TIP3      5796            0.0000000000
     25964      5860  TIP3      H2              7.8944274595       14.1720344152      -37.1259449089  TIP3      5796            0.0000000000
     25965      5861  TIP3      OH2            12.5662759211       -3.6749124496      -38.7882096355  TIP3      5797            0.0000000000
     25966      5861  TIP3      H1             11.7424394065       -3.3670683693      -39.2058856773  TIP3      5797            0.0000000000
     25967      5861  TIP3      H2             12.7201012580       -4.5100079135      -39.2917179628  TIP3      5797            0.0000000000
     25968      5862  TIP3      OH2            -1.6508615586       14.2586521682      -40.1732045891  TIP3      5798            0.0000000000
     25969      5862  TIP3      H1             -2.3840902040       14.7756860232      -40.5460573144  TIP3      5798            0.0000000000
     25970      5862  TIP3      H2             -1.9268286466       14.0904210517      -39.2606838812  TIP3      5798            0.0000000000
     25971      5863  TIP3      OH2             0.8145144938       13.8243492572      -41.0907201498  TIP3      5799            0.0000000000
     25972      5863  TIP3      H1             -0.0723078562       14.0057036955      -40.6966637465  TIP3      5799            0.0000000000
     25973      5863  TIP3      H2              0.7787306148       14.4328372180      -41.8483467019  TIP3      5799            0.0000000000
     25974      5864  TIP3      OH2             5.5298343696       13.7428951966      -41.9236336235  TIP3      5800            0.0000000000
     25975      5864  TIP3      H1              5.0615999846       14.3034302393      -42.5580806819  TIP3      5800            0.0000000000
     25976      5864  TIP3      H2              5.6595815829       14.3639523929      -41.1710745918  TIP3      5800            0.0000000000
     25977      5865  TIP3      OH2             7.7791732989       12.5065128293      -40.8226645710  TIP3      5801            0.0000000000
     25978      5865  TIP3      H1              6.9689248673       12.8283506372      -41.2540844920  TIP3      5801            0.0000000000
     25979      5865  TIP3      H2              8.3234460807       13.3053108069      -40.9226287948  TIP3      5801            0.0000000000
     25980      5866  TIP3      OH2            10.3575512573       14.0736711481      -40.6809989890  TIP3      5802            0.0000000000
     25981      5866  TIP3      H1             10.3768341457       15.0399412703      -40.8904286538  TIP3      5802            0.0000000000
     25982      5866  TIP3      H2             10.6100529951       13.7039629867      -41.5522016092  TIP3      5802            0.0000000000
     25983      5867  TIP3      OH2            -2.1556401677       12.9073774285      -43.2022998021  TIP3      5803            0.0000000000
     25984      5867  TIP3      H1             -2.2602154595       12.4282355259      -42.3530889667  TIP3      5803            0.0000000000
     25985      5867  TIP3      H2             -1.3478363495       12.5021893103      -43.5855880438  TIP3      5803            0.0000000000
     25986      5868  TIP3      OH2            -0.0963395162       11.6147329747      -44.5534009683  TIP3      5804            0.0000000000
     25987      5868  TIP3      H1             -0.2456247740       10.6848237896      -44.2968944466  TIP3      5804            0.0000000000
     25988      5868  TIP3      H2              0.7602803252       11.7907561474      -44.1138021160  TIP3      5804            0.0000000000
     25989      5869  TIP3      OH2             2.5145563565       12.1006871890      -43.6688352383  TIP3      5805            0.0000000000
     25990      5869  TIP3      H1              2.6495482210       11.1705171592      -43.9183539321  TIP3      5805            0.0000000000
     25991      5869  TIP3      H2              2.5525153695       12.0534032920      -42.7008839972  TIP3      5805            0.0000000000
     25992      5870  TIP3      OH2             5.9516878420       -2.2550646233      -44.5435824699  TIP3      5806            0.0000000000
     25993      5870  TIP3      H1              5.2766163154       -2.8879789189      -44.2449137994  TIP3      5806            0.0000000000
     25994      5870  TIP3      H2              6.5110869322       -2.7966265436      -45.1139754715  TIP3      5806            0.0000000000
     25995      5871  TIP3      OH2            11.0934587681       -4.2336800655      -44.5058782034  TIP3      5807            0.0000000000
     25996      5871  TIP3      H1             11.7009516910       -3.6203933283      -44.9956017545  TIP3      5807            0.0000000000
     25997      5871  TIP3      H2             10.2080792737       -3.8558337667      -44.7156842943  TIP3      5807            0.0000000000
     25998      5872  TIP3      OH2            12.8556220178       -3.0024862789      -46.0991318495  TIP3      5808            0.0000000000
     25999      5872  TIP3      H1             13.4938532291       -3.5306478098      -46.6238579816  TIP3      5808            0.0000000000
     26000      5872  TIP3      H2             13.2761616033       -2.1122539143      -46.0921722257  TIP3      5808            0.0000000000
     26001      5873  TIP3      OH2            -1.6572569265       -3.6380328040      -46.6740415045  TIP3      5809            0.0000000000
     26002      5873  TIP3      H1             -2.4577261770       -3.7956281107      -47.2114354738  TIP3      5809            0.0000000000
     26003      5873  TIP3      H2             -1.2315365445       -4.5168108722      -46.7567473357  TIP3      5809            0.0000000000
     26004      5874  TIP3      OH2            -2.9305946630       -3.8815105361      -50.9997383691  TIP3      5810            0.0000000000
     26005      5874  TIP3      H1             -2.4062774705       -3.2281542674      -51.4988635224  TIP3      5810            0.0000000000
     26006      5874  TIP3      H2             -3.4609536629       -3.3112797348      -50.4253991216  TIP3      5810            0.0000000000
     26007      5875  TIP3      OH2             2.7519550177       -3.7094826402      -46.8877792597  TIP3      5811            0.0000000000
     26008      5875  TIP3      H1              3.6496460652       -3.3608685711      -47.0110052444  TIP3      5811            0.0000000000
     26009      5875  TIP3      H2              2.7595918824       -3.9254578306      -45.9564683183  TIP3      5811            0.0000000000
     26010      5876  TIP3      OH2             8.5369116939       -3.6879246916      -45.3003103235  TIP3      5812            0.0000000000
     26011      5876  TIP3      H1              8.4466810232       -3.5502511283      -46.2515117845  TIP3      5812            0.0000000000
     26012      5876  TIP3      H2              8.1297405654       -4.5759846743      -45.1644482581  TIP3      5812            0.0000000000
     26013      5877  TIP3      OH2             9.7686848981       -3.7427514338      -49.6533340906  TIP3      5813            0.0000000000
     26014      5877  TIP3      H1              9.0840494786       -3.0603082109      -49.7333074093  TIP3      5813            0.0000000000
     26015      5877  TIP3      H2              9.2956396227       -4.5299710252      -49.3171596427  TIP3      5813            0.0000000000
     26016      5878  TIP3      OH2            -3.0183741213       12.0641490872      -49.8987270649  TIP3      5814            0.0000000000
     26017      5878  TIP3      H1             -3.6583070466       12.0373422673      -50.6335645556  TIP3      5814            0.0000000000
     26018      5878  TIP3      H2             -3.0088976375       13.0230162859      -49.7659519829  TIP3      5814            0.0000000000
     26019      5879  TIP3      OH2            -1.1156076541       -1.9389684733      -52.4324996920  TIP3      5815            0.0000000000
     26020      5879  TIP3      H1             -0.5796970910       -2.5412209156      -52.9768824292  TIP3      5815            0.0000000000
     26021      5879  TIP3      H2             -0.4396564758       -1.5979929783      -51.8195966298  TIP3      5815            0.0000000000
     26022      5880  TIP3      OH2             3.9044528142       -1.7091181727      -50.0486288149  TIP3      5816            0.0000000000
     26023      5880  TIP3      H1              4.1917088874       -2.2657200428      -49.3037039738  TIP3      5816            0.0000000000
     26024      5880  TIP3      H2              4.0396488884       -0.8299850524      -49.6353680181  TIP3      5816            0.0000000000
     26025      5881  TIP3      OH2             5.8831571396       13.4176317614      -51.6145370231  TIP3      5817            0.0000000000
     26026      5881  TIP3      H1              6.8168062746       13.5842896621      -51.8296735831  TIP3      5817            0.0000000000
     26027      5881  TIP3      H2              5.6582462730       12.8528497211      -52.3841166961  TIP3      5817            0.0000000000
     26028      5882  TIP3      OH2            12.5409499348       12.8564302087      -48.8572106179  TIP3      5818            0.0000000000
     26029      5882  TIP3      H1             12.3648442772       12.0744730481      -49.4301821677  TIP3      5818            0.0000000000
     26030      5882  TIP3      H2             12.4752704129       13.5952666997      -49.5003130826  TIP3      5818            0.0000000000
     26031      5883  TIP3      OH2            -1.8056967998       -3.0764134352      -37.2360043514  TIP3      5819            0.0000000000
     26032      5883  TIP3      H1             -2.2304167826       -3.8828989086      -36.8746871546  TIP3      5819            0.0000000000
     26033      5883  TIP3      H2             -0.9120095588       -3.1400177144      -36.8214324958  TIP3      5819            0.0000000000
     26034      5884  TIP3      OH2             0.1829612796       -3.6798391856      -35.5467651078  TIP3      5820            0.0000000000
     26035      5884  TIP3      H1              1.0684032050       -4.0159055560      -35.7847609280  TIP3      5820            0.0000000000
     26036      5884  TIP3      H2             -0.1903598337       -4.4970800160      -35.1618400184  TIP3      5820            0.0000000000
     26037      5885  TIP3      OH2            -1.2260317691       13.0688072184      -52.9856409003  TIP3      5821            0.0000000000
     26038      5885  TIP3      H1             -1.4877662828       13.3259288396      -52.0908619473  TIP3      5821            0.0000000000
     26039      5885  TIP3      H2             -0.4450215288       12.5015542008      -52.8356918631  TIP3      5821            0.0000000000
     26040      5886  TIP3      OH2             8.5947233843       -4.4286135910      -35.4263572507  TIP3      5822            0.0000000000
     26041      5886  TIP3      H1              8.6823420510       -4.9004948304      -34.5733677956  TIP3      5822            0.0000000000
     26042      5886  TIP3      H2              9.5133463352       -4.4680168436      -35.7669523935  TIP3      5822            0.0000000000
     26043      5887  TIP3      OH2            11.8132630837       11.6475052754      -36.8277836577  TIP3      5823            0.0000000000
     26044      5887  TIP3      H1             11.0170852767       11.5224104304      -37.3888008018  TIP3      5823            0.0000000000
     26045      5887  TIP3      H2             11.6913402851       12.5911732344      -36.6040003592  TIP3      5823            0.0000000000
     26046      5888  TIP3      OH2            17.4426147470        4.4364708518      -41.7804712180  TIP3      5824            0.0000000000
     26047      5888  TIP3      H1             17.5321588190        3.7452443410      -41.0957451579  TIP3      5824            0.0000000000
     26048      5888  TIP3      H2             18.1831850415        5.0130604482      -41.5449632254  TIP3      5824            0.0000000000
     26049      5889  TIP3      OH2            18.3877931679        8.8993612585      -43.3047570113  TIP3      5825            0.0000000000
     26050      5889  TIP3      H1             18.0725614572        8.0220753514      -43.6014331847  TIP3      5825            0.0000000000
     26051      5889  TIP3      H2             19.3468098339        8.7110737632      -43.2640873355  TIP3      5825            0.0000000000
     26052      5890  TIP3      OH2            15.0491583504        2.4518834355      -47.8062240266  TIP3      5826            0.0000000000
     26053      5890  TIP3      H1             14.5453241487        3.2845038034      -47.8574727304  TIP3      5826            0.0000000000
     26054      5890  TIP3      H2             14.4675873785        1.8789657914      -48.3362530323  TIP3      5826            0.0000000000
     26055      5891  TIP3      OH2            15.7494002995        4.6792450772      -45.6065848365  TIP3      5827            0.0000000000
     26056      5891  TIP3      H1             16.0326161478        3.8411855227      -45.1894137444  TIP3      5827            0.0000000000
     26057      5891  TIP3      H2             16.4012405868        4.8121373463      -46.3046040886  TIP3      5827            0.0000000000
     26058      5892  TIP3      OH2            19.5012340432       -0.3237370682      -45.3091237980  TIP3      5828            0.0000000000
     26059      5892  TIP3      H1             19.9227869971        0.4512793475      -45.7313358730  TIP3      5828            0.0000000000
     26060      5892  TIP3      H2             19.2659304205       -0.8826953450      -46.0775332715  TIP3      5828            0.0000000000
     26061      5893  TIP3      OH2            16.4271565009        2.1508066108      -44.6214823898  TIP3      5829            0.0000000000
     26062      5893  TIP3      H1             17.0707427051        1.6031899883      -44.1405599692  TIP3      5829            0.0000000000
     26063      5893  TIP3      H2             16.5101113594        1.7916156607      -45.5142215913  TIP3      5829            0.0000000000
     26064      5894  TIP3      OH2            21.5526093985        3.6751676856      -45.2945656648  TIP3      5830            0.0000000000
     26065      5894  TIP3      H1             22.2356265046        3.1364218513      -44.8537383194  TIP3      5830            0.0000000000
     26066      5894  TIP3      H2             20.9708494994        2.9754320917      -45.6351139839  TIP3      5830            0.0000000000
     26067      5895  TIP3      OH2            18.6417615942       -1.3655281477      -41.2841301532  TIP3      5831            0.0000000000
     26068      5895  TIP3      H1             18.3877764924       -0.7710546497      -42.0273137204  TIP3      5831            0.0000000000
     26069      5895  TIP3      H2             17.9668788840       -1.1311654331      -40.6018843680  TIP3      5831            0.0000000000
     26070      5896  TIP3      OH2            21.2416466968        6.2927984046      -40.9998505476  TIP3      5832            0.0000000000
     26071      5896  TIP3      H1             20.4520664221        6.8568246631      -40.8057259089  TIP3      5832            0.0000000000
     26072      5896  TIP3      H2             21.8135607752        6.9416121738      -41.4158632324  TIP3      5832            0.0000000000
     26073      5897  TIP3      OH2            18.2368138416        0.4827929382      -43.2042763361  TIP3      5833            0.0000000000
     26074      5897  TIP3      H1             18.8854244974        1.1676386642      -42.9271468036  TIP3      5833            0.0000000000
     26075      5897  TIP3      H2             18.7082627836        0.0942008090      -43.9917734903  TIP3      5833            0.0000000000
     26076      5898  TIP3      OH2            19.6752825149        8.2803029929      -40.2116343160  TIP3      5834            0.0000000000
     26077      5898  TIP3      H1             19.5942343714        9.1894969081      -40.5597215581  TIP3      5834            0.0000000000
     26078      5898  TIP3      H2             18.7821390579        8.1797682542      -39.7837193224  TIP3      5834            0.0000000000
     26079      5899  TIP3      OH2            15.7221627705        7.8525030114      -49.4755955370  TIP3      5835            0.0000000000
     26080      5899  TIP3      H1             15.4799818702        8.2507028259      -50.3304063030  TIP3      5835            0.0000000000
     26081      5899  TIP3      H2             15.8136055945        8.6465654424      -48.9114053053  TIP3      5835            0.0000000000
     26082      5900  TIP3      OH2            22.5605261398       -4.0563813079      -43.8956997071  TIP3      5836            0.0000000000
     26083      5900  TIP3      H1             22.4721118849       -5.0130318960      -43.8502397598  TIP3      5836            0.0000000000
     26084      5900  TIP3      H2             21.7225718564       -3.7383308855      -43.5188901454  TIP3      5836            0.0000000000
     26085      5901  TIP3      OH2            19.9747838215        5.6249564672      -46.4542984590  TIP3      5837            0.0000000000
     26086      5901  TIP3      H1             19.6369494802        5.2780510151      -47.3032599570  TIP3      5837            0.0000000000
     26087      5901  TIP3      H2             20.5961371476        4.9435273403      -46.1098657334  TIP3      5837            0.0000000000
     26088      5902  TIP3      OH2            21.2199549568        8.9216239741      -43.7337254027  TIP3      5838            0.0000000000
     26089      5902  TIP3      H1             21.2409884763        8.5200957950      -44.6152318246  TIP3      5838            0.0000000000
     26090      5902  TIP3      H2             22.1332975311        8.7586674848      -43.4355865264  TIP3      5838            0.0000000000
     26091      5903  TIP3      OH2            20.2899519794        4.4042118916      -42.7619693348  TIP3      5839            0.0000000000
     26092      5903  TIP3      H1             20.8847618307        4.4280990931      -43.5321132003  TIP3      5839            0.0000000000
     26093      5903  TIP3      H2             20.7264168863        5.0560640512      -42.1814068413  TIP3      5839            0.0000000000
     26094      5904  TIP3      OH2            21.2537082338        8.6708655618      -38.0801994912  TIP3      5840            0.0000000000
     26095      5904  TIP3      H1             20.9099260771        9.4872008393      -37.6399979244  TIP3      5840            0.0000000000
     26096      5904  TIP3      H2             20.6340934936        8.5767904720      -38.8411318525  TIP3      5840            0.0000000000
     26097      5905  TIP3      OH2            18.2289506666        4.9538838876      -39.0019070027  TIP3      5841            0.0000000000
     26098      5905  TIP3      H1             18.2854495592        5.6251453148      -38.2962483914  TIP3      5841            0.0000000000
     26099      5905  TIP3      H2             17.2723869245        5.0133932361      -39.1613576683  TIP3      5841            0.0000000000
     26100      5906  TIP3      OH2            19.5493309628       10.7923591112      -37.3826840509  TIP3      5842            0.0000000000
     26101      5906  TIP3      H1             19.4352911305       10.7153752582      -38.3527165228  TIP3      5842            0.0000000000
     26102      5906  TIP3      H2             18.6227434450       10.6837732036      -37.0900262885  TIP3      5842            0.0000000000
     26103      5907  TIP3      OH2            18.6943656465        4.8251104581      -48.7485048612  TIP3      5843            0.0000000000
     26104      5907  TIP3      H1             18.5562620991        5.5842603269      -49.3716523265  TIP3      5843            0.0000000000
     26105      5907  TIP3      H2             18.0201166908        4.2185930794      -49.0730106162  TIP3      5843            0.0000000000
     26106      5908  TIP3      OH2            15.0264202761        7.0721853499      -39.9325869101  TIP3      5844            0.0000000000
     26107      5908  TIP3      H1             14.5926688325        6.9901040434      -40.8004014543  TIP3      5844            0.0000000000
     26108      5908  TIP3      H2             15.1420426383        6.1246326891      -39.7231594581  TIP3      5844            0.0000000000
     26109      5909  TIP3      OH2            14.7933447640        9.8041937724      -43.1852313581  TIP3      5845            0.0000000000
     26110      5909  TIP3      H1             15.7548881304        9.7014600648      -43.2266149483  TIP3      5845            0.0000000000
     26111      5909  TIP3      H2             14.7010391223       10.6373432059      -42.7047004961  TIP3      5845            0.0000000000
     26112      5910  TIP3      OH2            18.0780755258       12.6613257887      -47.0113539082  TIP3      5846            0.0000000000
     26113      5910  TIP3      H1             18.2087007567       12.2614862962      -46.1236854523  TIP3      5846            0.0000000000
     26114      5910  TIP3      H2             17.2217628641       12.2617870680      -47.2509959353  TIP3      5846            0.0000000000
     26115      5911  TIP3      OH2            17.3218005606        8.3890878660      -39.0325726095  TIP3      5847            0.0000000000
     26116      5911  TIP3      H1             17.5381226644        8.0552200408      -38.1339881977  TIP3      5847            0.0000000000
     26117      5911  TIP3      H2             16.4488209163        7.9930052701      -39.2303979956  TIP3      5847            0.0000000000
     26118      5912  TIP3      OH2            20.0266124175       -3.0908487269      -43.1193713467  TIP3      5848            0.0000000000
     26119      5912  TIP3      H1             19.1073570298       -3.2635106749      -43.4266629350  TIP3      5848            0.0000000000
     26120      5912  TIP3      H2             19.8756538804       -2.2808313533      -42.5958477231  TIP3      5848            0.0000000000
     26121      5913  TIP3      OH2            20.0716141597        1.8191064419      -41.7906792262  TIP3      5849            0.0000000000
     26122      5913  TIP3      H1             19.3206926326        1.8373558361      -41.1692003703  TIP3      5849            0.0000000000
     26123      5913  TIP3      H2             20.0259445739        2.7088973067      -42.1930655586  TIP3      5849            0.0000000000
     26124      5914  TIP3      OH2            19.9979521352        1.9089721198      -46.8380818512  TIP3      5850            0.0000000000
     26125      5914  TIP3      H1             19.0606600130        1.5993773018      -46.9340443181  TIP3      5850            0.0000000000
     26126      5914  TIP3      H2             20.5008294697        1.3354682709      -47.4284406554  TIP3      5850            0.0000000000
     26127      5915  TIP3      OH2            17.7298850501        2.0795385221      -40.1492724396  TIP3      5851            0.0000000000
     26128      5915  TIP3      H1             17.8401173763        2.4833858132      -39.2767406290  TIP3      5851            0.0000000000
     26129      5915  TIP3      H2             17.3170730025        1.2322551635      -39.9208678971  TIP3      5851            0.0000000000
     26130      5916  TIP3      OH2            21.0287385879       -0.5332550853      -53.1458980910  TIP3      5852            0.0000000000
     26131      5916  TIP3      H1             20.5138959062       -0.9984588707      -52.4667025377  TIP3      5852            0.0000000000
     26132      5916  TIP3      H2             20.3629511051       -0.1151655583      -53.7122012224  TIP3      5852            0.0000000000
     26133      5917  TIP3      OH2            14.4127678785       -0.8283620414      -46.1136225751  TIP3      5853            0.0000000000
     26134      5917  TIP3      H1             15.1101931181       -0.8921545924      -45.4284380271  TIP3      5853            0.0000000000
     26135      5917  TIP3      H2             14.8201403293       -1.1748901848      -46.9308532599  TIP3      5853            0.0000000000
     26136      5918  TIP3      OH2            15.7341813127       -0.0390073233      -50.7018485346  TIP3      5854            0.0000000000
     26137      5918  TIP3      H1             16.1480469012        0.5072252692      -51.3895528648  TIP3      5854            0.0000000000
     26138      5918  TIP3      H2             14.9239712534        0.5016330870      -50.5353881951  TIP3      5854            0.0000000000
     26139      5919  TIP3      OH2            22.0517265179       -0.1889508516      -45.7989852317  TIP3      5855            0.0000000000
     26140      5919  TIP3      H1             21.3081726703       -0.6293796723      -45.3539812535  TIP3      5855            0.0000000000
     26141      5919  TIP3      H2             22.7822872598       -0.4186531943      -45.1936986754  TIP3      5855            0.0000000000
     26142      5920  TIP3      OH2            17.4809124338        1.0727100429      -47.1637258746  TIP3      5856            0.0000000000
     26143      5920  TIP3      H1             16.5610262150        1.2450275574      -47.4590834939  TIP3      5856            0.0000000000
     26144      5920  TIP3      H2             17.6142698478        0.1402539119      -47.4355608539  TIP3      5856            0.0000000000
     26145      5921  TIP3      OH2            21.3346667064        0.8494037862      -49.5747680162  TIP3      5857            0.0000000000
     26146      5921  TIP3      H1             22.1758708344        1.2160241059      -49.3069867202  TIP3      5857            0.0000000000
     26147      5921  TIP3      H2             21.0443256851        1.3734275157      -50.3527640218  TIP3      5857            0.0000000000
     26148      5922  TIP3      OH2            19.8464072476        2.2486761450      -51.8062057230  TIP3      5858            0.0000000000
     26149      5922  TIP3      H1             19.2222063987        1.8976135003      -52.4837665350  TIP3      5858            0.0000000000
     26150      5922  TIP3      H2             20.5804294484        2.4799030247      -52.4127181775  TIP3      5858            0.0000000000
     26151      5923  TIP3      OH2            17.8791238098        6.8614367498      -36.8054179784  TIP3      5859            0.0000000000
     26152      5923  TIP3      H1             18.6052395104        7.1145574553      -36.2104034387  TIP3      5859            0.0000000000
     26153      5923  TIP3      H2             17.1205862555        6.8942273950      -36.1845721848  TIP3      5859            0.0000000000
     26154      5924  TIP3      OH2            18.9192784445       -1.5353222249      -47.6437170300  TIP3      5860            0.0000000000
     26155      5924  TIP3      H1             18.5446466426       -2.4425411263      -47.5653397261  TIP3      5860            0.0000000000
     26156      5924  TIP3      H2             19.7046664792       -1.7082659145      -48.1742562121  TIP3      5860            0.0000000000
     26157      5925  TIP3      OH2            22.3867506038        0.4126570176      -41.3289421465  TIP3      5861            0.0000000000
     26158      5925  TIP3      H1             21.7419625721        1.0734510753      -41.6553199729  TIP3      5861            0.0000000000
     26159      5925  TIP3      H2             23.0787970761        0.9849699994      -41.0188969475  TIP3      5861            0.0000000000
     26160      5926  TIP3      OH2            23.0313178513        6.6254429071      -50.0936920678  TIP3      5862            0.0000000000
     26161      5926  TIP3      H1             22.1267101373        6.3384089331      -50.2901725929  TIP3      5862            0.0000000000
     26162      5926  TIP3      H2             22.9668984854        6.9303035295      -49.1706113494  TIP3      5862            0.0000000000
     26163      5927  TIP3      OH2            18.2635156022        6.2373027682      -44.1178039151  TIP3      5863            0.0000000000
     26164      5927  TIP3      H1             18.8876565584        6.1403025791      -44.8601215892  TIP3      5863            0.0000000000
     26165      5927  TIP3      H2             18.2861808385        5.3606770282      -43.6977905931  TIP3      5863            0.0000000000
     26166      5928  TIP3      OH2            15.2277907764        4.6068675395      -38.8877965058  TIP3      5864            0.0000000000
     26167      5928  TIP3      H1             15.3701804443        4.1565511000      -38.0319072017  TIP3      5864            0.0000000000
     26168      5928  TIP3      H2             14.5981340510        4.0183237632      -39.3428630261  TIP3      5864            0.0000000000
     26169      5929  TIP3      OH2            22.4580974769        4.3038805735      -36.8755384371  TIP3      5865            0.0000000000
     26170      5929  TIP3      H1             21.8231807968        3.8110452429      -37.4346593027  TIP3      5865            0.0000000000
     26171      5929  TIP3      H2             23.1104176378        3.6130853264      -36.6763141270  TIP3      5865            0.0000000000
     26172      5930  TIP3      OH2            20.5903479312        9.7092672311      -46.6650369808  TIP3      5866            0.0000000000
     26173      5930  TIP3      H1             21.0859918682       10.4761531984      -46.9913781469  TIP3      5866            0.0000000000
     26174      5930  TIP3      H2             19.7145432468        9.8917384046      -47.0331875078  TIP3      5866            0.0000000000
     26175      5931  TIP3      OH2            16.4319868706        4.4813718422      -52.1417112660  TIP3      5867            0.0000000000
     26176      5931  TIP3      H1             16.9442398808        5.2200043837      -51.7770860405  TIP3      5867            0.0000000000
     26177      5931  TIP3      H2             15.5029614393        4.7757827125      -51.9820023900  TIP3      5867            0.0000000000
     26178      5932  TIP3      OH2            21.9466447691        7.3547595103      -47.3283988945  TIP3      5868            0.0000000000
     26179      5932  TIP3      H1             21.6854999673        8.2690667846      -47.1216472643  TIP3      5868            0.0000000000
     26180      5932  TIP3      H2             21.3065864159        6.8612461438      -46.7810502528  TIP3      5868            0.0000000000
     26181      5933  TIP3      OH2            22.4624363935       11.5087945157      -40.9146862522  TIP3      5869            0.0000000000
     26182      5933  TIP3      H1             22.8859893227       12.3597004691      -41.0606401370  TIP3      5869            0.0000000000
     26183      5933  TIP3      H2             23.0168929174       11.1520246179      -40.2065780423  TIP3      5869            0.0000000000
     26184      5934  TIP3      OH2            20.7204076345       12.3637936690      -47.7351063503  TIP3      5870            0.0000000000
     26185      5934  TIP3      H1             19.7446034617       12.3984938961      -47.5757637162  TIP3      5870            0.0000000000
     26186      5934  TIP3      H2             20.9733972525       13.1805409181      -47.2890018854  TIP3      5870            0.0000000000
     26187      5935  TIP3      OH2            16.8501439129       -0.6527073909      -39.3358245201  TIP3      5871            0.0000000000
     26188      5935  TIP3      H1             15.9484872285       -0.2986034806      -39.3374397932  TIP3      5871            0.0000000000
     26189      5935  TIP3      H2             16.7558242029       -1.4972017435      -38.8622096594  TIP3      5871            0.0000000000
     26190      5936  TIP3      OH2            16.4999457953       11.1024354767      -40.9111795580  TIP3      5872            0.0000000000
     26191      5936  TIP3      H1             16.8463048273       10.2013434957      -40.8972206061  TIP3      5872            0.0000000000
     26192      5936  TIP3      H2             16.7536474741       11.4188487121      -40.0383596388  TIP3      5872            0.0000000000
     26193      5937  TIP3      OH2            22.3373863821        9.7137597661      -53.7293718963  TIP3      5873            0.0000000000
     26194      5937  TIP3      H1             22.5839319494        8.9208395659      -54.2172768515  TIP3      5873            0.0000000000
     26195      5937  TIP3      H2             22.0995171160        9.2990146144      -52.8696586101  TIP3      5873            0.0000000000
     26196      5938  TIP3      OH2            21.2421335100        9.1829568637      -51.1627646773  TIP3      5874            0.0000000000
     26197      5938  TIP3      H1             21.5504749046        8.6409548465      -50.4288532258  TIP3      5874            0.0000000000
     26198      5938  TIP3      H2             21.3372468070       10.1063974907      -50.8352340286  TIP3      5874            0.0000000000
     26199      5939  TIP3      OH2            17.8358093774        6.4514186848      -50.6616699400  TIP3      5875            0.0000000000
     26200      5939  TIP3      H1             17.0780953141        6.8594003308      -50.1906170101  TIP3      5875            0.0000000000
     26201      5939  TIP3      H2             18.2732713759        7.2385598889      -51.0346610931  TIP3      5875            0.0000000000
     26202      5940  TIP3      OH2            21.3837419643       11.8689261581      -50.4897782950  TIP3      5876            0.0000000000
     26203      5940  TIP3      H1             21.4913164037       12.6809924259      -51.0496693283  TIP3      5876            0.0000000000
     26204      5940  TIP3      H2             21.1484105957       12.2294831107      -49.6125728851  TIP3      5876            0.0000000000
     26205      5941  TIP3      OH2            19.9063384587       -1.3659343018      -50.8528680768  TIP3      5877            0.0000000000
     26206      5941  TIP3      H1             19.9657210861       -0.4842946227      -50.4632954735  TIP3      5877            0.0000000000
     26207      5941  TIP3      H2             20.8409186875       -1.6461381364      -50.6826391581  TIP3      5877            0.0000000000
     26208      5942  TIP3      OH2            18.3135500866        9.0422086055      -51.8548085528  TIP3      5878            0.0000000000
     26209      5942  TIP3      H1             19.0212661127        9.6121470043      -51.5063175660  TIP3      5878            0.0000000000
     26210      5942  TIP3      H2             18.8516176690        8.5637696488      -52.5171213958  TIP3      5878            0.0000000000
     26211      5943  TIP3      OH2            16.6554630216        1.7284968912      -52.6740240403  TIP3      5879            0.0000000000
     26212      5943  TIP3      H1             16.6678409566        2.6881303812      -52.4733052407  TIP3      5879            0.0000000000
     26213      5943  TIP3      H2             15.7555932298        1.5640409261      -52.9868488269  TIP3      5879            0.0000000000
     26214      5944  TIP3      OH2            17.4544963398       -3.5179366174      -43.8866899921  TIP3      5880            0.0000000000
     26215      5944  TIP3      H1             17.3376413065       -3.4865142367      -44.8641330629  TIP3      5880            0.0000000000
     26216      5944  TIP3      H2             17.0599694164       -4.3908397102      -43.6752353286  TIP3      5880            0.0000000000
     26217      5945  TIP3      OH2            16.4426231329       10.4232534601      -47.7816340261  TIP3      5881            0.0000000000
     26218      5945  TIP3      H1             15.5739380080       10.8415328469      -47.8506418364  TIP3      5881            0.0000000000
     26219      5945  TIP3      H2             16.8838902794       10.8608255531      -48.5206543146  TIP3      5881            0.0000000000
     26220      5946  TIP3      OH2            15.6068077878       13.0775336180      -36.5195557743  TIP3      5882            0.0000000000
     26221      5946  TIP3      H1             16.2427284353       12.9032918843      -35.7988811690  TIP3      5882            0.0000000000
     26222      5946  TIP3      H2             15.2451237728       12.1906176817      -36.6917834891  TIP3      5882            0.0000000000
     26223      5947  TIP3      OH2            20.3441054871       11.9971133542      -34.9250935338  TIP3      5883            0.0000000000
     26224      5947  TIP3      H1             21.1247204050       11.5249805303      -34.5859061479  TIP3      5883            0.0000000000
     26225      5947  TIP3      H2             20.2867321350       11.6773769947      -35.8498245747  TIP3      5883            0.0000000000
     26226      5948  TIP3      OH2            15.5092279409        6.8349161333      -35.5044958894  TIP3      5884            0.0000000000
     26227      5948  TIP3      H1             15.6859691255        5.9238035074      -35.7993657537  TIP3      5884            0.0000000000
     26228      5948  TIP3      H2             14.7983221776        7.0972068436      -36.1123133231  TIP3      5884            0.0000000000
     26229      5949  TIP3      OH2            19.8347937492        7.1561195422      -53.5275564401  TIP3      5885            0.0000000000
     26230      5949  TIP3      H1             20.0285955877        6.4634860638      -52.8875103146  TIP3      5885            0.0000000000
     26231      5949  TIP3      H2             20.6307029309        7.0820437513      -54.0914738534  TIP3      5885            0.0000000000
     26232      5950  TIP3      OH2            22.2778126011        6.8866520908      -36.1459908118  TIP3      5886            0.0000000000
     26233      5950  TIP3      H1             21.7369602292        7.2224662374      -36.9012768908  TIP3      5886            0.0000000000
     26234      5950  TIP3      H2             22.1753311469        5.9006760562      -36.2158304550  TIP3      5886            0.0000000000
     26235      5951  TIP3      OH2            16.5100896463        4.0835904786      -36.1227431854  TIP3      5887            0.0000000000
     26236      5951  TIP3      H1             16.9062110986        3.2113078873      -36.2039269685  TIP3      5887            0.0000000000
     26237      5951  TIP3      H2             16.2691498753        4.1004069362      -35.1815565614  TIP3      5887            0.0000000000
     26238      5952  TIP3      OH2            21.0233005383        5.1965011971      -51.0744132051  TIP3      5888            0.0000000000
     26239      5952  TIP3      H1             20.4612346553        4.6828178094      -50.5178902306  TIP3      5888            0.0000000000
     26240      5952  TIP3      H2             21.3898373607        4.5891922114      -51.7554884541  TIP3      5888            0.0000000000
     26241      5953  TIP3      OH2            20.3840917739        3.0668209402      -38.7213395018  TIP3      5889            0.0000000000
     26242      5953  TIP3      H1             19.6911551644        3.7236468969      -38.5568941641  TIP3      5889            0.0000000000
     26243      5953  TIP3      H2             20.7171542444        3.3701399544      -39.5847668548  TIP3      5889            0.0000000000
     26244      5954  TIP3      OH2            22.1926660803        3.4557972188      -52.8641699726  TIP3      5890            0.0000000000
     26245      5954  TIP3      H1             21.9550421799        3.2610173141      -53.7962358203  TIP3      5890            0.0000000000
     26246      5954  TIP3      H2             23.1585331108        3.4611406409      -52.9382474088  TIP3      5890            0.0000000000
     26247      5955  TIP3      OH2            20.8317827637        0.3610184953      -37.7996485637  TIP3      5891            0.0000000000
     26248      5955  TIP3      H1             20.9020023756       -0.3456305192      -38.4703794435  TIP3      5891            0.0000000000
     26249      5955  TIP3      H2             20.7303925388        1.1850203691      -38.3217782572  TIP3      5891            0.0000000000
     26250      5956  TIP3      OH2            21.1235072730       -1.4154296212      -40.1841391429  TIP3      5892            0.0000000000
     26251      5956  TIP3      H1             21.6090665038       -0.7879203236      -40.7762751329  TIP3      5892            0.0000000000
     26252      5956  TIP3      H2             20.2294243716       -1.2985747673      -40.5601318356  TIP3      5892            0.0000000000
     26253      5957  TIP3      OH2            22.4732238675        4.1334344212      -40.2012413504  TIP3      5893            0.0000000000
     26254      5957  TIP3      H1             23.2594558415        4.0406960023      -40.7567909787  TIP3      5893            0.0000000000
     26255      5957  TIP3      H2             22.1861221505        5.0458183476      -40.4161919049  TIP3      5893            0.0000000000
     26256      5958  TIP3      OH2            19.2476322971        1.6367437917      -35.8135124882  TIP3      5894            0.0000000000
     26257      5958  TIP3      H1             18.4662037133        1.0745482027      -35.9845644762  TIP3      5894            0.0000000000
     26258      5958  TIP3      H2             19.8860633100        1.2489476506      -36.4352416350  TIP3      5894            0.0000000000
     26259      5959  TIP3      OH2            21.6713334367       -3.8719574392      -39.6230780808  TIP3      5895            0.0000000000
     26260      5959  TIP3      H1             21.6115166856       -2.8997302886      -39.8097986421  TIP3      5895            0.0000000000
     26261      5959  TIP3      H2             21.0424444458       -4.2162702025      -40.2836866858  TIP3      5895            0.0000000000
     26262      5960  TIP3      OH2            22.6566355647        0.9530055885      -35.6809680807  TIP3      5896            0.0000000000
     26263      5960  TIP3      H1             22.7773433731        0.1891953494      -35.0949351254  TIP3      5896            0.0000000000
     26264      5960  TIP3      H2             22.2864277085        0.5269968092      -36.4833913075  TIP3      5896            0.0000000000
     26265      5961  TIP3      OH2            17.3004478112       -0.3963261320      -36.0410103655  TIP3      5897            0.0000000000
     26266      5961  TIP3      H1             17.5423891026       -1.1489426309      -36.6110924884  TIP3      5897            0.0000000000
     26267      5961  TIP3      H2             17.2247766537       -0.8232155995      -35.1648586748  TIP3      5897            0.0000000000
     26268      5962  TIP3      OH2            22.2022327030       -4.3954824587      -37.0924601504  TIP3      5898            0.0000000000
     26269      5962  TIP3      H1             22.9361335878       -5.0293283731      -37.1302212322  TIP3      5898            0.0000000000
     26270      5962  TIP3      H2             22.0302113906       -4.2387135976      -38.0510547431  TIP3      5898            0.0000000000
     26271      5963  TIP3      OH2            22.5325726126       -2.8276978433      -34.9408705116  TIP3      5899            0.0000000000
     26272      5963  TIP3      H1             22.3997196668       -3.3114417817      -35.7935968891  TIP3      5899            0.0000000000
     26273      5963  TIP3      H2             21.9342601825       -2.0500621390      -34.9997837556  TIP3      5899            0.0000000000
     26274      5964  TIP3      OH2            22.0465507059       14.1616465679      -51.7665940576  TIP3      5900            0.0000000000
     26275      5964  TIP3      H1             23.0072196765       14.2194127602      -51.7772058418  TIP3      5900            0.0000000000
     26276      5964  TIP3      H2             21.8906615702       14.7075101455      -52.5559209410  TIP3      5900            0.0000000000
     26277      5965  TIP3      OH2            15.5407170876        8.6966071761      -52.3051565606  TIP3      5901            0.0000000000
     26278      5965  TIP3      H1             16.5082420955        8.8129594552      -52.1505717834  TIP3      5901            0.0000000000
     26279      5965  TIP3      H2             15.5742297074        8.0731420210      -53.0716910126  TIP3      5901            0.0000000000
     26280      5966  TIP3      OH2            14.3507443472       14.0701990053      -47.3688413600  TIP3      5902            0.0000000000
     26281      5966  TIP3      H1             13.6188288052       13.5821478416      -47.8073477433  TIP3      5902            0.0000000000
     26282      5966  TIP3      H2             14.6263822815       13.4350895962      -46.6820699073  TIP3      5902            0.0000000000
     26283      5967  TIP3      OH2            15.1759554364       12.2322377412      -45.4643614494  TIP3      5903            0.0000000000
     26284      5967  TIP3      H1             14.8049945611       11.3658359854      -45.2486748475  TIP3      5903            0.0000000000
     26285      5967  TIP3      H2             15.4078952364       12.5715694799      -44.5828151711  TIP3      5903            0.0000000000
     26286      5968  TIP3      OH2            15.2411325836        5.3299448816      -42.9726683648  TIP3      5904            0.0000000000
     26287      5968  TIP3      H1             15.3990463433        5.2358800845      -43.9390890478  TIP3      5904            0.0000000000
     26288      5968  TIP3      H2             16.1334486901        5.1131265974      -42.6327845269  TIP3      5904            0.0000000000
     26289      5969  TIP3      OH2            14.8682039305        0.6216263020      -36.7838477605  TIP3      5905            0.0000000000
     26290      5969  TIP3      H1             15.8025630140        0.3756639209      -36.6123508038  TIP3      5905            0.0000000000
     26291      5969  TIP3      H2             14.3952243690       -0.2148071408      -36.5807877255  TIP3      5905            0.0000000000
     26292      5970  TIP3      OH2            16.0576037051       -1.0938663781      -43.9663112110  TIP3      5906            0.0000000000
     26293      5970  TIP3      H1             16.5060617389       -1.9337439344      -43.7315023317  TIP3      5906            0.0000000000
     26294      5970  TIP3      H2             16.6453952793       -0.4192989862      -43.5980645577  TIP3      5906            0.0000000000
     26295      5971  TIP3      OH2            14.3474437173        1.9218460980      -42.9665853870  TIP3      5907            0.0000000000
     26296      5971  TIP3      H1             14.9241890322        1.6465640682      -43.7076024226  TIP3      5907            0.0000000000
     26297      5971  TIP3      H2             14.8327352024        2.7102697577      -42.6831542262  TIP3      5907            0.0000000000
     26298      5972  TIP3      OH2            14.6840212860       -1.7891676078      -48.8402091649  TIP3      5908            0.0000000000
     26299      5972  TIP3      H1             13.7528446192       -1.6482834944      -49.0576807052  TIP3      5908            0.0000000000
     26300      5972  TIP3      H2             15.0884969782       -1.3302226080      -49.5962022631  TIP3      5908            0.0000000000
     26301      5973  TIP3      OH2            14.6405694056       -3.1932280568      -40.5785017535  TIP3      5909            0.0000000000
     26302      5973  TIP3      H1             13.9738599904       -3.3865416406      -39.8981914903  TIP3      5909            0.0000000000
     26303      5973  TIP3      H2             14.1782674153       -2.5263568229      -41.1273267998  TIP3      5909            0.0000000000
     26304      5974  TIP3      OH2            16.9068146308        9.9904599565      -36.4323526910  TIP3      5910            0.0000000000
     26305      5974  TIP3      H1             16.0703080906       10.2370042158      -36.8628527810  TIP3      5910            0.0000000000
     26306      5974  TIP3      H2             16.6418973458        9.9165664779      -35.5127824172  TIP3      5910            0.0000000000
     26307      5975  TIP3      OH2            19.7524638647       11.0885266671      -40.1106480149  TIP3      5911            0.0000000000
     26308      5975  TIP3      H1             19.4901649974       11.9668059171      -40.4142472500  TIP3      5911            0.0000000000
     26309      5975  TIP3      H2             20.6925590378       11.1098661901      -40.3818597367  TIP3      5911            0.0000000000
     26310      5976  TIP3      OH2            17.2038789625       14.2618832388      -40.1713833807  TIP3      5912            0.0000000000
     26311      5976  TIP3      H1             16.4706652747       14.7792367803      -40.5404286363  TIP3      5912            0.0000000000
     26312      5976  TIP3      H2             16.9265702330       14.0903609225      -39.2593204167  TIP3      5912            0.0000000000
     26313      5977  TIP3      OH2            19.6683701890       13.7986771985      -41.1311802729  TIP3      5913            0.0000000000
     26314      5977  TIP3      H1             18.8073233370       13.9766648951      -40.6800789123  TIP3      5913            0.0000000000
     26315      5977  TIP3      H2             19.5992801566       14.4581875898      -41.8443905379  TIP3      5913            0.0000000000
     26316      5978  TIP3      OH2            16.7076509816       12.9008479771      -43.2162513187  TIP3      5914            0.0000000000
     26317      5978  TIP3      H1             16.6157283939       12.4160782077      -42.3710322796  TIP3      5914            0.0000000000
     26318      5978  TIP3      H2             17.5182769467       12.5079655587      -43.6002240902  TIP3      5914            0.0000000000
     26319      5979  TIP3      OH2            18.7737106302       11.6297706105      -44.5730183418  TIP3      5915            0.0000000000
     26320      5979  TIP3      H1             18.6385022901       10.6988827655      -44.3106966860  TIP3      5915            0.0000000000
     26321      5979  TIP3      H2             19.6290628319       11.8054690554      -44.1375054199  TIP3      5915            0.0000000000
     26322      5980  TIP3      OH2            21.3936040171       12.0967272456      -43.6926156163  TIP3      5916            0.0000000000
     26323      5980  TIP3      H1             21.5055392638       11.1637125028      -43.9336638219  TIP3      5916            0.0000000000
     26324      5980  TIP3      H2             21.3548260350       12.0678501200      -42.7225104100  TIP3      5916            0.0000000000
     26325      5981  TIP3      OH2            17.2249498454       -3.6339092548      -46.6855344582  TIP3      5917            0.0000000000
     26326      5981  TIP3      H1             16.4116674526       -3.7817561143      -47.2016034814  TIP3      5917            0.0000000000
     26327      5981  TIP3      H2             17.6240793719       -4.5224083621      -46.7568040257  TIP3      5917            0.0000000000
     26328      5982  TIP3      OH2            15.9812311654       -3.8816918934      -50.9641758186  TIP3      5918            0.0000000000
     26329      5982  TIP3      H1             16.4481157509       -3.2198229577      -51.5075560078  TIP3      5918            0.0000000000
     26330      5982  TIP3      H2             15.3721704392       -3.3165596593      -50.4572002135  TIP3      5918            0.0000000000
     26331      5983  TIP3      OH2            21.4927860613       -3.5310494457      -46.8070820460  TIP3      5919            0.0000000000
     26332      5983  TIP3      H1             22.4367853317       -3.4044185608      -46.9934815830  TIP3      5919            0.0000000000
     26333      5983  TIP3      H2             21.5461748673       -3.8761472615      -45.9146648104  TIP3      5919            0.0000000000
     26334      5984  TIP3      OH2            15.8359152735       12.0654927809      -49.8979270782  TIP3      5920            0.0000000000
     26335      5984  TIP3      H1             15.1931080419       12.0376557797      -50.6302136398  TIP3      5920            0.0000000000
     26336      5984  TIP3      H2             15.8482465101       13.0246468368      -49.7676403580  TIP3      5920            0.0000000000
     26337      5985  TIP3      OH2            17.7667333153       -1.9367267487      -52.4749870643  TIP3      5921            0.0000000000
     26338      5985  TIP3      H1             18.3183035548       -2.5371307867      -53.0004483095  TIP3      5921            0.0000000000
     26339      5985  TIP3      H2             18.4290706996       -1.6072437202      -51.8361035290  TIP3      5921            0.0000000000
     26340      5986  TIP3      OH2            22.4017785041       -1.5735008733      -50.4132828148  TIP3      5922            0.0000000000
     26341      5986  TIP3      H1             22.8073379217       -2.3092294485      -49.9285939696  TIP3      5922            0.0000000000
     26342      5986  TIP3      H2             22.7378871247       -0.8173323508      -49.9215436802  TIP3      5922            0.0000000000
     26343      5987  TIP3      OH2            17.0513763792       -3.0763857213      -37.2512137908  TIP3      5923            0.0000000000
     26344      5987  TIP3      H1             16.6563104201       -3.8898953688      -36.8857883396  TIP3      5923            0.0000000000
     26345      5987  TIP3      H2             17.9510042432       -3.1503014967      -36.8446304570  TIP3      5923            0.0000000000
     26346      5988  TIP3      OH2            19.0154203756       -3.7532452964      -35.6343405809  TIP3      5924            0.0000000000
     26347      5988  TIP3      H1             19.9187159249       -4.0542821010      -35.8296965590  TIP3      5924            0.0000000000
     26348      5988  TIP3      H2             18.6905951999       -4.5401016311      -35.1564339771  TIP3      5924            0.0000000000
     26349      5989  TIP3      OH2            17.6473749474       13.0643773597      -52.9862711762  TIP3      5925            0.0000000000
     26350      5989  TIP3      H1             17.3774472816       13.3195949673      -52.0902590685  TIP3      5925            0.0000000000
     26351      5989  TIP3      H2             18.4352041357       12.5052416211      -52.8289315715  TIP3      5925            0.0000000000
     26352      5990  TIP3      OH2           -20.2399487681       23.1501488704      -41.7500040405  TIP3      5926            0.0000000000
     26353      5990  TIP3      H1            -20.1300844763       22.5199489613      -41.0199599341  TIP3      5926            0.0000000000
     26354      5990  TIP3      H2            -19.6317589635       23.8731739698      -41.5511610801  TIP3      5926            0.0000000000
     26355      5991  TIP3      OH2           -22.6076200874       21.3856600356      -47.9027223348  TIP3      5927            0.0000000000
     26356      5991  TIP3      H1            -23.0971010916       22.2029828764      -47.8514949005  TIP3      5927            0.0000000000
     26357      5991  TIP3      H2            -23.2454233310       20.7440002905      -48.2066451066  TIP3      5927            0.0000000000
     26358      5992  TIP3      OH2            -5.6389405577       17.6830607243      -42.1672936440  TIP3      5928            0.0000000000
     26359      5992  TIP3      H1             -5.4696882695       18.2499505606      -41.3818524493  TIP3      5928            0.0000000000
     26360      5992  TIP3      H2             -5.0404972837       18.1107660605      -42.7981014430  TIP3      5928            0.0000000000
     26361      5993  TIP3      OH2           -11.0481650412       20.4945169281      -42.5337683004  TIP3      5929            0.0000000000
     26362      5993  TIP3      H1            -10.8796463572       19.5381544673      -42.5600036376  TIP3      5929            0.0000000000
     26363      5993  TIP3      H2            -11.1503513420       20.7019607424      -43.4780084349  TIP3      5929            0.0000000000
     26364      5994  TIP3      OH2           -17.9676138708       18.5995169636      -45.3164623510  TIP3      5930            0.0000000000
     26365      5994  TIP3      H1            -17.8375518341       19.4186004450      -45.8351630990  TIP3      5930            0.0000000000
     26366      5994  TIP3      H2            -18.3322572736       18.0232822031      -46.0262199554  TIP3      5930            0.0000000000
     26367      5995  TIP3      OH2           -10.1958037332       18.6613682417      -46.9610701531  TIP3      5931            0.0000000000
     26368      5995  TIP3      H1             -9.5751140710       18.3311680025      -46.2721501173  TIP3      5931            0.0000000000
     26369      5995  TIP3      H2             -9.6017191623       19.2486946136      -47.4492678753  TIP3      5931            0.0000000000
     26370      5996  TIP3      OH2           -21.2287706489       20.9598220491      -44.6778069205  TIP3      5932            0.0000000000
     26371      5996  TIP3      H1            -20.6077467420       20.4224864763      -44.1598800184  TIP3      5932            0.0000000000
     26372      5996  TIP3      H2            -21.1513417166       20.5703253231      -45.5591676370  TIP3      5932            0.0000000000
     26373      5997  TIP3      OH2           -16.2314137672       22.3210212155      -45.2118595187  TIP3      5933            0.0000000000
     26374      5997  TIP3      H1            -15.4873217718       21.7559053538      -44.9396620752  TIP3      5933            0.0000000000
     26375      5997  TIP3      H2            -16.6940647676       21.7718994831      -45.8780040196  TIP3      5933            0.0000000000
     26376      5998  TIP3      OH2            -5.2560700135       19.0511027617      -39.8769986253  TIP3      5934            0.0000000000
     26377      5998  TIP3      H1             -5.7758821125       19.8782637448      -39.9804923304  TIP3      5934            0.0000000000
     26378      5998  TIP3      H2             -5.1823884845       19.0073290992      -38.9109220123  TIP3      5934            0.0000000000
     26379      5999  TIP3      OH2           -18.9989562281       17.4433804959      -41.3108427387  TIP3      5935            0.0000000000
     26380      5999  TIP3      H1            -19.2934252918       18.0253979383      -42.0364400702  TIP3      5935            0.0000000000
     26381      5999  TIP3      H2            -19.6711961731       17.6781768535      -40.6234138650  TIP3      5935            0.0000000000
     26382      6000  TIP3      OH2            -8.3642923965       18.0188732727      -44.9503194444  TIP3      5936            0.0000000000
     26383      6000  TIP3      H1             -8.5888750046       17.2503925672      -44.4205536389  TIP3      5936            0.0000000000
     26384      6000  TIP3      H2             -7.7155820102       18.4733540292      -44.3808731530  TIP3      5936            0.0000000000
     26385      6001  TIP3      OH2           -19.4883597334       19.3427098976      -43.2171123202  TIP3      5937            0.0000000000
     26386      6001  TIP3      H1            -18.8283532255       19.9954341013      -42.9098944467  TIP3      5937            0.0000000000
     26387      6001  TIP3      H2            -18.9956799254       18.9514979901      -43.9839857843  TIP3      5937            0.0000000000
     26388      6002  TIP3      OH2            -8.0704943720       16.6799828353      -41.3024542404  TIP3      5938            0.0000000000
     26389      6002  TIP3      H1             -8.7828522758       17.3244716656      -41.4221973733  TIP3      5938            0.0000000000
     26390      6002  TIP3      H2             -7.3393513672       17.0947868794      -41.8081298089  TIP3      5938            0.0000000000
     26391      6003  TIP3      OH2           -15.1353458908       14.8306951699      -43.8381014479  TIP3      5939            0.0000000000
     26392      6003  TIP3      H1            -15.3036188138       13.8728086959      -43.9209250671  TIP3      5939            0.0000000000
     26393      6003  TIP3      H2            -16.0042307590       15.1563361729      -43.5086225505  TIP3      5939            0.0000000000
     26394      6004  TIP3      OH2           -12.7536226695       22.0978981133      -52.3736206239  TIP3      5940            0.0000000000
     26395      6004  TIP3      H1            -12.0560538944       22.1943165099      -51.6906776821  TIP3      5940            0.0000000000
     26396      6004  TIP3      H2            -12.3975442592       21.3983158585      -52.9236332095  TIP3      5940            0.0000000000
     26397      6005  TIP3      OH2            -5.7499975288       22.9346626374      -41.2848067400  TIP3      5941            0.0000000000
     26398      6005  TIP3      H1             -6.1308752591       23.8058020070      -41.1412208544  TIP3      5941            0.0000000000
     26399      6005  TIP3      H2             -4.9239133983       23.1965285424      -41.7235229337  TIP3      5941            0.0000000000
     26400      6006  TIP3      OH2            -9.4209526860       22.0398061055      -39.2773768806  TIP3      5942            0.0000000000
     26401      6006  TIP3      H1             -9.4395314949       22.8869088640      -38.8243918820  TIP3      5942            0.0000000000
     26402      6006  TIP3      H2            -10.0325579815       22.2434853626      -40.0232789562  TIP3      5942            0.0000000000
     26403      6007  TIP3      OH2           -17.1209106244      -23.8401519218      -42.6336805273  TIP3      5943            0.0000000000
     26404      6007  TIP3      H1            -16.9927343851      -23.6541723248      -43.5932468860  TIP3      5943            0.0000000000
     26405      6007  TIP3      H2            -17.2297367709      -22.9190993626      -42.3465822323  TIP3      5943            0.0000000000
     26406      6008  TIP3      OH2           -10.4859735212       22.8142286231      -51.0006448804  TIP3      5944            0.0000000000
     26407      6008  TIP3      H1            -10.1227147397       23.0148741522      -50.1235599481  TIP3      5944            0.0000000000
     26408      6008  TIP3      H2            -10.1373251079       23.5385514476      -51.5266871326  TIP3      5944            0.0000000000
     26409      6009  TIP3      OH2            -6.7189944464       14.7454013595      -50.7873129944  TIP3      5945            0.0000000000
     26410      6009  TIP3      H1             -7.6780106183       14.8353872202      -50.5908003767  TIP3      5945            0.0000000000
     26411      6009  TIP3      H2             -6.5352443316       15.5820802426      -51.2565971897  TIP3      5945            0.0000000000
     26412      6010  TIP3      OH2            -7.5622520636       20.8681980416      -37.0528990958  TIP3      5946            0.0000000000
     26413      6010  TIP3      H1             -7.9480781221       21.3302535732      -37.8118715296  TIP3      5946            0.0000000000
     26414      6010  TIP3      H2             -7.5765282723       19.9412667804      -37.3508311707  TIP3      5946            0.0000000000
     26415      6011  TIP3      OH2           -17.6814683969       15.7669220766      -43.1249840131  TIP3      5947            0.0000000000
     26416      6011  TIP3      H1            -18.5934377565       15.5958807001      -43.4557118360  TIP3      5947            0.0000000000
     26417      6011  TIP3      H2            -17.8621822703       16.5486061424      -42.5761907461  TIP3      5947            0.0000000000
     26418      6012  TIP3      OH2           -13.0421566418       15.3632093230      -39.7338799229  TIP3      5948            0.0000000000
     26419      6012  TIP3      H1            -12.6651790756       14.9406154432      -38.9395627891  TIP3      5948            0.0000000000
     26420      6012  TIP3      H2            -14.0179045438       15.2822809567      -39.5880390616  TIP3      5948            0.0000000000
     26421      6013  TIP3      OH2            -9.8093930653       19.2884685617      -38.8078768951  TIP3      5949            0.0000000000
     26422      6013  TIP3      H1            -10.3498244568       19.0462698348      -38.0148344294  TIP3      5949            0.0000000000
     26423      6013  TIP3      H2            -10.0310215442       20.2047654580      -39.0264844533  TIP3      5949            0.0000000000
     26424      6014  TIP3      OH2           -13.3917451024       17.9319408341      -52.4000532378  TIP3      5950            0.0000000000
     26425      6014  TIP3      H1            -13.7532229413       17.9233784639      -51.4997748989  TIP3      5950            0.0000000000
     26426      6014  TIP3      H2            -13.7587063373       17.0907009905      -52.7249907857  TIP3      5950            0.0000000000
     26427      6015  TIP3      OH2           -17.6452616281       20.5792121249      -41.6971173878  TIP3      5951            0.0000000000
     26428      6015  TIP3      H1            -18.4221529728       20.7137633739      -41.1310331059  TIP3      5951            0.0000000000
     26429      6015  TIP3      H2            -17.6046064004       21.4295765099      -42.2033538954  TIP3      5951            0.0000000000
     26430      6016  TIP3      OH2           -17.6477731098       20.7350901618      -46.9716201053  TIP3      5952            0.0000000000
     26431      6016  TIP3      H1            -18.6084442924       20.5608025880      -47.1232905753  TIP3      5952            0.0000000000
     26432      6016  TIP3      H2            -17.3092037674       20.4886169737      -47.8518356590  TIP3      5952            0.0000000000
     26433      6017  TIP3      OH2           -11.9861144266       21.3988631478      -48.1043118354  TIP3      5953            0.0000000000
     26434      6017  TIP3      H1            -12.6149932596       22.0136962584      -48.5138043892  TIP3      5953            0.0000000000
     26435      6017  TIP3      H2            -11.4617016141       21.0746059977      -48.8620385346  TIP3      5953            0.0000000000
     26436      6018  TIP3      OH2           -12.9689047472       21.5410900795      -36.7921831774  TIP3      5954            0.0000000000
     26437      6018  TIP3      H1            -13.5694312268       20.8102540477      -36.4876056774  TIP3      5954            0.0000000000
     26438      6018  TIP3      H2            -12.1957248344       21.3755866073      -36.2251003221  TIP3      5954            0.0000000000
     26439      6019  TIP3      OH2           -11.1586770767       20.7630928039      -45.3221557028  TIP3      5955            0.0000000000
     26440      6019  TIP3      H1            -11.4141164667       21.2742779195      -46.1071121894  TIP3      5955            0.0000000000
     26441      6019  TIP3      H2            -10.9956523983       19.8946230740      -45.7431407484  TIP3      5955            0.0000000000
     26442      6020  TIP3      OH2           -20.0368024883       21.0194189233      -40.0873668803  TIP3      5956            0.0000000000
     26443      6020  TIP3      H1            -20.0278766904       21.3250947319      -39.1721299199  TIP3      5956            0.0000000000
     26444      6020  TIP3      H2            -20.3939168254       20.1169030417      -39.9790084449  TIP3      5956            0.0000000000
     26445      6021  TIP3      OH2           -16.6591122734       18.3330005896      -53.3207991452  TIP3      5957            0.0000000000
     26446      6021  TIP3      H1            -17.0778725090       17.9728610496      -52.5129799328  TIP3      5957            0.0000000000
     26447      6021  TIP3      H2            -17.3796858345       18.7767252386      -53.7790157529  TIP3      5957            0.0000000000
     26448      6022  TIP3      OH2           -22.1082627650       18.1717206329      -46.3854371897  TIP3      5958            0.0000000000
     26449      6022  TIP3      H1            -22.3843319377       17.9279853174      -45.4917577278  TIP3      5958            0.0000000000
     26450      6022  TIP3      H2            -22.7280646602       17.6451837061      -46.9093160815  TIP3      5958            0.0000000000
     26451      6023  TIP3      OH2           -22.0217928480       18.8803954378      -50.6781138018  TIP3      5959            0.0000000000
     26452      6023  TIP3      H1            -21.5113981060       19.3405799330      -51.3849448206  TIP3      5959            0.0000000000
     26453      6023  TIP3      H2            -22.7642379166       19.4714955591      -50.6008632514  TIP3      5959            0.0000000000
     26454      6024  TIP3      OH2           -11.8160069258       22.3221139454      -40.6651968006  TIP3      5960            0.0000000000
     26455      6024  TIP3      H1            -11.5507492917       21.7616454697      -41.4240120724  TIP3      5960            0.0000000000
     26456      6024  TIP3      H2            -12.4029741040       21.7361768147      -40.1522831264  TIP3      5960            0.0000000000
     26457      6025  TIP3      OH2           -15.0764802606       18.3591702745      -45.9622306853  TIP3      5961            0.0000000000
     26458      6025  TIP3      H1            -16.0102934106       18.3758706186      -45.6828841045  TIP3      5961            0.0000000000
     26459      6025  TIP3      H2            -14.6256080207       18.2126461947      -45.1163437985  TIP3      5961            0.0000000000
     26460      6026  TIP3      OH2           -20.1322094658       19.9333900530      -47.1250531853  TIP3      5962            0.0000000000
     26461      6026  TIP3      H1            -21.0732014779       20.0556222170      -47.3668580441  TIP3      5962            0.0000000000
     26462      6026  TIP3      H2            -19.9937278044       19.0237012048      -47.4532286047  TIP3      5962            0.0000000000
     26463      6027  TIP3      OH2           -16.6489945748       19.9752367019      -49.4789634308  TIP3      5963            0.0000000000
     26464      6027  TIP3      H1            -15.6958508875       20.0746034405      -49.3128966812  TIP3      5963            0.0000000000
     26465      6027  TIP3      H2            -16.8621980010       20.6561246186      -50.1465443156  TIP3      5963            0.0000000000
     26466      6028  TIP3      OH2           -10.6770651060       17.6129610795      -42.7227675801  TIP3      5964            0.0000000000
     26467      6028  TIP3      H1            -11.3523827657       17.6362383983      -42.0071540617  TIP3      5964            0.0000000000
     26468      6028  TIP3      H2            -11.1950144985       17.3369751956      -43.4921624803  TIP3      5964            0.0000000000
     26469      6029  TIP3      OH2           -18.0003949040       21.1574123746      -51.9222289025  TIP3      5965            0.0000000000
     26470      6029  TIP3      H1            -18.4453265795       20.7366883828      -52.6660135177  TIP3      5965            0.0000000000
     26471      6029  TIP3      H2            -17.1196373357       21.3638139042      -52.2943681432  TIP3      5965            0.0000000000
     26472      6030  TIP3      OH2           -13.9199266308       21.0767880373      -44.1214508533  TIP3      5966            0.0000000000
     26473      6030  TIP3      H1            -13.2041629241       20.6072151112      -44.5628069456  TIP3      5966            0.0000000000
     26474      6030  TIP3      H2            -13.9849788306       20.6168823256      -43.2740083458  TIP3      5966            0.0000000000
     26475      6031  TIP3      OH2           -18.8273896196       17.2621784124      -47.6277113625  TIP3      5967            0.0000000000
     26476      6031  TIP3      H1            -19.1402778278       16.3426013328      -47.5973115487  TIP3      5967            0.0000000000
     26477      6031  TIP3      H2            -18.0232657930       17.1788322472      -48.1557672399  TIP3      5967            0.0000000000
     26478      6032  TIP3      OH2           -15.1616159383       19.4528864573      -41.6628814598  TIP3      5968            0.0000000000
     26479      6032  TIP3      H1            -15.9827760541       19.9742861799      -41.5790870868  TIP3      5968            0.0000000000
     26480      6032  TIP3      H2            -14.6006078431       19.7968190084      -40.9483846994  TIP3      5968            0.0000000000
     26481      6033  TIP3      OH2           -10.7374280932       18.5035731068      -51.7567160433  TIP3      5969            0.0000000000
     26482      6033  TIP3      H1            -11.6884958861       18.6400598144      -51.9229853130  TIP3      5969            0.0000000000
     26483      6033  TIP3      H2            -10.4270545524       19.3711925516      -51.4353320764  TIP3      5969            0.0000000000
     26484      6034  TIP3      OH2           -10.0356174960       20.4504308757      -50.0878435900  TIP3      5970            0.0000000000
     26485      6034  TIP3      H1             -9.1407545068       20.2182839106      -49.7482586684  TIP3      5970            0.0000000000
     26486      6034  TIP3      H2             -9.8706839761       21.2141278110      -50.6685694470  TIP3      5970            0.0000000000
     26487      6035  TIP3      OH2           -15.5648172722       22.0070607001      -36.3187259748  TIP3      5971            0.0000000000
     26488      6035  TIP3      H1            -15.9017917180       22.2995507663      -37.1793074164  TIP3      5971            0.0000000000
     26489      6035  TIP3      H2            -14.6619989658       22.3790198578      -36.2649776212  TIP3      5971            0.0000000000
     26490      6036  TIP3      OH2            -5.1834435945       20.5279999394      -50.3384333679  TIP3      5972            0.0000000000
     26491      6036  TIP3      H1             -5.6867967823       20.2361800394      -51.1251047670  TIP3      5972            0.0000000000
     26492      6036  TIP3      H2             -5.1095933378       21.4701421965      -50.5622870133  TIP3      5972            0.0000000000
     26493      6037  TIP3      OH2           -21.3539313525      -23.5178776572      -52.5678648538  TIP3      5973            0.0000000000
     26494      6037  TIP3      H1            -20.6655626434      -23.0890208363      -52.0347815359  TIP3      5973            0.0000000000
     26495      6037  TIP3      H2            -22.1278330381      -23.2413015301      -52.0427052386  TIP3      5973            0.0000000000
     26496      6038  TIP3      OH2           -20.8021700709       18.1965014931      -39.4181595970  TIP3      5974            0.0000000000
     26497      6038  TIP3      H1            -21.6885706585       18.5752819343      -39.2371889485  TIP3      5974            0.0000000000
     26498      6038  TIP3      H2            -20.8802782907       17.3984621014      -38.8699697829  TIP3      5974            0.0000000000
     26499      6039  TIP3      OH2           -12.1035169821       17.9561016888      -40.3348624541  TIP3      5975            0.0000000000
     26500      6039  TIP3      H1            -11.3935458653       18.0829416243      -39.6996981438  TIP3      5975            0.0000000000
     26501      6039  TIP3      H2            -12.4610374772       17.0773980619      -40.1014913457  TIP3      5975            0.0000000000
     26502      6040  TIP3      OH2           -11.3688223352       17.5266337311      -49.2583056686  TIP3      5976            0.0000000000
     26503      6040  TIP3      H1            -11.1310615876       17.9441169956      -50.1082216190  TIP3      5976            0.0000000000
     26504      6040  TIP3      H2            -10.7877404847       17.9966112947      -48.6403040947  TIP3      5976            0.0000000000
     26505      6041  TIP3      OH2           -14.1148956603       19.2648847294      -48.4618978668  TIP3      5977            0.0000000000
     26506      6041  TIP3      H1            -13.3814249408       19.8915642897      -48.4007305369  TIP3      5977            0.0000000000
     26507      6041  TIP3      H2            -14.4303439013       19.1705853772      -47.5398448499  TIP3      5977            0.0000000000
     26508      6042  TIP3      OH2           -13.5551371058       20.3541366150      -39.2083562488  TIP3      5978            0.0000000000
     26509      6042  TIP3      H1            -13.4928301242       20.8392583793      -38.3685788842  TIP3      5978            0.0000000000
     26510      6042  TIP3      H2            -12.9227882829       19.6223697974      -39.1418744054  TIP3      5978            0.0000000000
     26511      6043  TIP3      OH2           -13.2974247622       16.3242086912      -47.6189434283  TIP3      5979            0.0000000000
     26512      6043  TIP3      H1            -13.6226665416       16.9656650116      -46.9648547767  TIP3      5979            0.0000000000
     26513      6043  TIP3      H2            -12.5857231400       16.8753603412      -48.0314603937  TIP3      5979            0.0000000000
     26514      6044  TIP3      OH2           -17.5994780324       17.4418364304      -50.8869779030  TIP3      5980            0.0000000000
     26515      6044  TIP3      H1            -17.6735900739       18.3287391636      -50.4795447703  TIP3      5980            0.0000000000
     26516      6044  TIP3      H2            -16.6990280090       17.1915268277      -50.5973253967  TIP3      5980            0.0000000000
     26517      6045  TIP3      OH2            -7.4312637502       18.1429325584      -38.4174448312  TIP3      5981            0.0000000000
     26518      6045  TIP3      H1             -8.3528888769       18.4625777950      -38.5487238629  TIP3      5981            0.0000000000
     26519      6045  TIP3      H2             -7.1056144747       18.1622499413      -39.3326626141  TIP3      5981            0.0000000000
     26520      6046  TIP3      OH2            -8.7951509626       21.7926746448      -44.5372988489  TIP3      5982            0.0000000000
     26521      6046  TIP3      H1             -9.6885080810       21.4311653533      -44.6308578656  TIP3      5982            0.0000000000
     26522      6046  TIP3      H2             -8.3764498940       21.1860108742      -43.8898270201  TIP3      5982            0.0000000000
     26523      6047  TIP3      OH2           -21.1256031312       20.5111055553      -52.7472398262  TIP3      5983            0.0000000000
     26524      6047  TIP3      H1            -21.0935992611       21.4559536306      -52.5154539507  TIP3      5983            0.0000000000
     26525      6047  TIP3      H2            -22.0147427701       20.3889733436      -53.0922574675  TIP3      5983            0.0000000000
     26526      6048  TIP3      OH2           -20.1977757017       15.3155667318      -43.9133612226  TIP3      5984            0.0000000000
     26527      6048  TIP3      H1            -20.3677058319       15.3798909868      -44.8824161561  TIP3      5984            0.0000000000
     26528      6048  TIP3      H2            -20.6820717923       14.4875368750      -43.7193670465  TIP3      5984            0.0000000000
     26529      6049  TIP3      OH2           -21.4884369629       22.6264066381      -36.1897858290  TIP3      5985            0.0000000000
     26530      6049  TIP3      H1            -20.7931549633       21.9522844878      -36.1545882239  TIP3      5985            0.0000000000
     26531      6049  TIP3      H2            -21.4814643307       22.9358989470      -35.2508093274  TIP3      5985            0.0000000000
     26532      6050  TIP3      OH2           -17.3012918723       21.9471106118      -38.6880581262  TIP3      5986            0.0000000000
     26533      6050  TIP3      H1            -17.9617159443       22.6263955704      -38.4993934001  TIP3      5986            0.0000000000
     26534      6050  TIP3      H2            -16.9777111417       22.1701441768      -39.5749864060  TIP3      5986            0.0000000000
     26535      6051  TIP3      OH2           -15.5409764999       22.0928465413      -52.6719811277  TIP3      5987            0.0000000000
     26536      6051  TIP3      H1            -15.7022060437       22.1374384400      -53.6426631020  TIP3      5987            0.0000000000
     26537      6051  TIP3      H2            -14.6007603808       22.3586062454      -52.6558932541  TIP3      5987            0.0000000000
     26538      6052  TIP3      OH2           -16.9233620198       19.1831606933      -37.7518290246  TIP3      5988            0.0000000000
     26539      6052  TIP3      H1            -16.8239763453       18.4786381469      -38.4137345581  TIP3      5988            0.0000000000
     26540      6052  TIP3      H2            -17.0075516423       19.9877638855      -38.2885176236  TIP3      5988            0.0000000000
     26541      6053  TIP3      OH2           -16.5104498652       17.5523221886      -40.1999317886  TIP3      5989            0.0000000000
     26542      6053  TIP3      H1            -15.9953147019       18.0604462631      -40.8705577845  TIP3      5989            0.0000000000
     26543      6053  TIP3      H2            -17.4194621391       17.6114460348      -40.5704703786  TIP3      5989            0.0000000000
     26544      6054  TIP3      OH2           -14.7397451694      -24.0544179808      -40.1746367076  TIP3      5990            0.0000000000
     26545      6054  TIP3      H1            -13.9109643820      -24.0194358534      -40.6738645371  TIP3      5990            0.0000000000
     26546      6054  TIP3      H2            -15.0998949763      -23.1817325140      -40.3191796727  TIP3      5990            0.0000000000
     26547      6055  TIP3      OH2           -10.5719235443       20.8526673949      -34.9768667505  TIP3      5991            0.0000000000
     26548      6055  TIP3      H1            -10.4257683838       19.9012531901      -35.0983946202  TIP3      5991            0.0000000000
     26549      6055  TIP3      H2             -9.6593573324       21.1806384358      -35.0077429604  TIP3      5991            0.0000000000
     26550      6056  TIP3      OH2           -18.5666083371       20.5577413311      -35.8605872807  TIP3      5992            0.0000000000
     26551      6056  TIP3      H1            -19.2374170753       19.8428991658      -35.9447420838  TIP3      5992            0.0000000000
     26552      6056  TIP3      H2            -17.8392833171       20.1991788913      -36.4095121489  TIP3      5992            0.0000000000
     26553      6057  TIP3      OH2           -15.7199258044       15.0639644651      -39.8029876526  TIP3      5993            0.0000000000
     26554      6057  TIP3      H1            -15.9461038382       16.0232141255      -39.8973950383  TIP3      5993            0.0000000000
     26555      6057  TIP3      H2            -16.4617895228       14.6840699777      -40.3058527920  TIP3      5993            0.0000000000
     26556      6058  TIP3      OH2           -14.4109954272       19.3559448020      -36.1457412478  TIP3      5994            0.0000000000
     26557      6058  TIP3      H1            -14.7875336772       19.1948779349      -35.2589275236  TIP3      5994            0.0000000000
     26558      6058  TIP3      H2            -15.2000003974       19.1788275827      -36.6888693010  TIP3      5994            0.0000000000
     26559      6059  TIP3      OH2           -11.7206270716       18.5925054712      -37.0116522332  TIP3      5995            0.0000000000
     26560      6059  TIP3      H1            -12.6879626834       18.6399323313      -36.9317119903  TIP3      5995            0.0000000000
     26561      6059  TIP3      H2            -11.5023995132       17.9270088636      -36.3217904051  TIP3      5995            0.0000000000
     26562      6060  TIP3      OH2           -10.2019698342       17.1914651105      -35.1883046845  TIP3      5996            0.0000000000
     26563      6060  TIP3      H1            -10.2172078405       16.2119100082      -35.1662130405  TIP3      5996            0.0000000000
     26564      6060  TIP3      H2            -10.3874642282       17.4654884280      -34.2677538407  TIP3      5996            0.0000000000
     26565      6061  TIP3      OH2           -20.2098682166       18.4400761029      -35.9836649862  TIP3      5997            0.0000000000
     26566      6061  TIP3      H1            -20.1464150550       17.6991575179      -36.6118742785  TIP3      5997            0.0000000000
     26567      6061  TIP3      H2            -20.4730979808       17.9692746211      -35.1675061179  TIP3      5997            0.0000000000
     26568      6062  TIP3      OH2           -15.5210867563       14.4937368799      -37.0947786761  TIP3      5998            0.0000000000
     26569      6062  TIP3      H1            -14.8560639233       13.7776301093      -37.0913015804  TIP3      5998            0.0000000000
     26570      6062  TIP3      H2            -15.6498054550       14.5861734074      -38.0615390399  TIP3      5998            0.0000000000
     26571      6063  TIP3      OH2           -15.1694199203       16.0764902411      -34.9310662110  TIP3      5999            0.0000000000
     26572      6063  TIP3      H1            -15.3536853175       15.5560510118      -35.7527834289  TIP3      5999            0.0000000000
     26573      6063  TIP3      H2            -15.7519587082       16.8550623180      -35.0471322594  TIP3      5999            0.0000000000
     26574      6064  TIP3      OH2            -6.6773799646       20.6019649840      -52.7196042708  TIP3      6000            0.0000000000
     26575      6064  TIP3      H1             -6.5395276620       21.2620361936      -53.4132586294  TIP3      6000            0.0000000000
     26576      6064  TIP3      H2             -6.7988138297       19.7740420537      -53.2325635650  TIP3      6000            0.0000000000
     26577      6065  TIP3      OH2            -7.4828098189       22.0575832661      -47.1063243843  TIP3      6001            0.0000000000
     26578      6065  TIP3      H1             -7.6484834563       21.1057901658      -47.1174834212  TIP3      6001            0.0000000000
     26579      6065  TIP3      H2             -7.7498769644       22.2854386147      -46.2027336188  TIP3      6001            0.0000000000
     26580      6066  TIP3      OH2            -5.1183097221       21.9470937668      -36.6799596930  TIP3      6002            0.0000000000
     26581      6066  TIP3      H1             -5.9861349651       21.5482866065      -36.8484898834  TIP3      6002            0.0000000000
     26582      6066  TIP3      H2             -4.5363434466       21.1825425010      -36.8309511901  TIP3      6002            0.0000000000
     26583      6067  TIP3      OH2            -7.3897756445       18.1397424629      -53.5843879227  TIP3      6003            0.0000000000
     26584      6067  TIP3      H1             -6.8037577797       17.6808497933      -52.9489954000  TIP3      6003            0.0000000000
     26585      6067  TIP3      H2             -8.2470186033       17.7095326987      -53.4525739900  TIP3      6003            0.0000000000
     26586      6068  TIP3      OH2            -7.8787071266       19.7144243763      -48.5894550133  TIP3      6004            0.0000000000
     26587      6068  TIP3      H1             -7.5799453531       18.7860754577      -48.4458645598  TIP3      6004            0.0000000000
     26588      6068  TIP3      H2             -7.0434059700       20.0882610930      -48.9054703169  TIP3      6004            0.0000000000
     26589      6069  TIP3      OH2            -7.1542933722       20.1051862358      -43.1005231811  TIP3      6005            0.0000000000
     26590      6069  TIP3      H1             -6.2170341328       20.4013159159      -43.1694328733  TIP3      6005            0.0000000000
     26591      6069  TIP3      H2             -7.3657702651       20.4062478673      -42.2071069982  TIP3      6005            0.0000000000
     26592      6070  TIP3      OH2            -7.1256796326       20.9406920847      -40.2129665296  TIP3      6006            0.0000000000
     26593      6070  TIP3      H1             -8.0456766998       21.2340880723      -40.0517281202  TIP3      6006            0.0000000000
     26594      6070  TIP3      H2             -6.6930653037       21.7257707003      -40.6444648707  TIP3      6006            0.0000000000
     26595      6071  TIP3      OH2           -22.3272838275       19.1779197945      -37.5324013942  TIP3      6007            0.0000000000
     26596      6071  TIP3      H1            -21.6769562424       19.3740683605      -36.8291973500  TIP3      6007            0.0000000000
     26597      6071  TIP3      H2            -23.0291787809       18.8894357711      -36.9171776828  TIP3      6007            0.0000000000
     26598      6072  TIP3      OH2            -4.8538530201       14.9832596852      -35.0431698574  TIP3      6008            0.0000000000
     26599      6072  TIP3      H1             -4.4536975599       14.3460537103      -35.6623812757  TIP3      6008            0.0000000000
     26600      6072  TIP3      H2             -4.7776197347       15.7977443821      -35.5806363366  TIP3      6008            0.0000000000
     26601      6073  TIP3      OH2            -7.1549550935       16.9719208357      -48.5475327902  TIP3      6009            0.0000000000
     26602      6073  TIP3      H1             -6.9038528469       16.5463243229      -47.6942312225  TIP3      6009            0.0000000000
     26603      6073  TIP3      H2             -7.7225110090       16.2973555097      -48.9716269220  TIP3      6009            0.0000000000
     26604      6074  TIP3      OH2           -21.7397390462       17.7288167400      -43.7501860056  TIP3      6010            0.0000000000
     26605      6074  TIP3      H1            -21.2235144088       16.9075152526      -43.6696622658  TIP3      6010            0.0000000000
     26606      6074  TIP3      H2            -21.0795420309       18.4117307983      -43.5726971001  TIP3      6010            0.0000000000
     26607      6075  TIP3      OH2           -23.4306197491       21.0328202075      -43.2055087385  TIP3      6011            0.0000000000
     26608      6075  TIP3      H1            -22.7764781399       20.5074163971      -43.7026520411  TIP3      6011            0.0000000000
     26609      6075  TIP3      H2            -22.8266111251       21.6077147460      -42.7276267263  TIP3      6011            0.0000000000
     26610      6076  TIP3      OH2            -5.3194556458       17.1120531299      -36.6738475696  TIP3      6012            0.0000000000
     26611      6076  TIP3      H1             -6.2499473550       17.4107708998      -36.7192142414  TIP3      6012            0.0000000000
     26612      6076  TIP3      H2             -5.3207779624       16.5542829202      -37.4676018874  TIP3      6012            0.0000000000
     26613      6077  TIP3      OH2            -5.3350185957       16.9733594426      -51.9782157084  TIP3      6013            0.0000000000
     26614      6077  TIP3      H1             -4.9422455825       16.2666354647      -52.5401493392  TIP3      6013            0.0000000000
     26615      6077  TIP3      H2             -4.6040042222       17.6053936356      -51.9295252654  TIP3      6013            0.0000000000
     26616      6078  TIP3      OH2           -22.6501732602       16.8693921813      -48.6492913924  TIP3      6014            0.0000000000
     26617      6078  TIP3      H1            -23.5801469492       17.0964599359      -48.5562860581  TIP3      6014            0.0000000000
     26618      6078  TIP3      H2            -22.3437430707       17.4515392642      -49.3791444461  TIP3      6014            0.0000000000
     26619      6079  TIP3      OH2            23.9279772728       15.7522334785      -40.6772664610  TIP3      6015            0.0000000000
     26620      6079  TIP3      H1             23.2770410433       15.4297937942      -40.0238961174  TIP3      6015            0.0000000000
     26621      6079  TIP3      H2             23.3828582054       16.3707927120      -41.1835991853  TIP3      6015            0.0000000000
     26622      6080  TIP3      OH2            -6.2957238105       15.1705043052      -38.7856864008  TIP3      6016            0.0000000000
     26623      6080  TIP3      H1             -7.1077214475       15.4925665785      -39.2131876675  TIP3      6016            0.0000000000
     26624      6080  TIP3      H2             -6.1357500545       14.3409612819      -39.2945685803  TIP3      6016            0.0000000000
     26625      6081  TIP3      OH2           -12.9047549117       16.6061531210      -44.5398019384  TIP3      6017            0.0000000000
     26626      6081  TIP3      H1            -13.5871715171       15.9797685637      -44.2420588339  TIP3      6017            0.0000000000
     26627      6081  TIP3      H2            -12.3620596455       16.0537803615      -45.1109220260  TIP3      6017            0.0000000000
     26628      6082  TIP3      OH2            -7.7550725519       14.6258472704      -44.5078499381  TIP3      6018            0.0000000000
     26629      6082  TIP3      H1             -7.1626413516       15.2418778697      -45.0071946636  TIP3      6018            0.0000000000
     26630      6082  TIP3      H2             -8.6458145172       14.9956377967      -44.7108562839  TIP3      6018            0.0000000000
     26631      6083  TIP3      OH2            -6.1184136745       15.9242137560      -46.2378720007  TIP3      6019            0.0000000000
     26632      6083  TIP3      H1             -5.4281433939       15.3285786596      -46.6185672700  TIP3      6019            0.0000000000
     26633      6083  TIP3      H2             -5.5807368464       16.7387847574      -46.0888503390  TIP3      6019            0.0000000000
     26634      6084  TIP3      OH2           -20.5077816307       15.1820117129      -46.6610394338  TIP3      6020            0.0000000000
     26635      6084  TIP3      H1            -21.2909438428       15.0577661612      -47.2278117688  TIP3      6020            0.0000000000
     26636      6084  TIP3      H2            -20.0508457584       14.3228153623      -46.7724644250  TIP3      6020            0.0000000000
     26637      6085  TIP3      OH2           -21.6800662353       14.9425562274      -50.9379943010  TIP3      6021            0.0000000000
     26638      6085  TIP3      H1            -21.2959467580       15.6051830978      -51.5372615833  TIP3      6021            0.0000000000
     26639      6085  TIP3      H2            -22.2801560812       15.5027242751      -50.4300165526  TIP3      6021            0.0000000000
     26640      6086  TIP3      OH2           -16.0999660571       15.1507493392      -46.8933930299  TIP3      6022            0.0000000000
     26641      6086  TIP3      H1            -15.1990095360       15.4933853446      -47.0124726634  TIP3      6022            0.0000000000
     26642      6086  TIP3      H2            -16.0919626024       14.9275985501      -45.9633420986  TIP3      6022            0.0000000000
     26643      6087  TIP3      OH2           -10.3131154636       15.1649657684      -45.3041893854  TIP3      6023            0.0000000000
     26644      6087  TIP3      H1            -10.4236755297       15.3016318045      -46.2528184870  TIP3      6023            0.0000000000
     26645      6087  TIP3      H2            -10.7191794069       14.2767807158      -45.1630261072  TIP3      6023            0.0000000000
     26646      6088  TIP3      OH2            -9.0921555670       15.1917719355      -49.6034272454  TIP3      6024            0.0000000000
     26647      6088  TIP3      H1             -9.8516750751       15.7788267881      -49.7353087710  TIP3      6024            0.0000000000
     26648      6088  TIP3      H2             -9.5196867704       14.3461352641      -49.3250752641  TIP3      6024            0.0000000000
     26649      6089  TIP3      OH2           -19.9311615778       16.9433321784      -52.4607400958  TIP3      6025            0.0000000000
     26650      6089  TIP3      H1            -19.4122029008       16.3161081240      -52.9856757907  TIP3      6025            0.0000000000
     26651      6089  TIP3      H2            -19.2528734946       17.2217890510      -51.8226477526  TIP3      6025            0.0000000000
     26652      6090  TIP3      OH2           -14.9515049944       17.1359979814      -50.0483241419  TIP3      6026            0.0000000000
     26653      6090  TIP3      H1            -14.6577387586       16.5877794600      -49.3018034253  TIP3      6026            0.0000000000
     26654      6090  TIP3      H2            -14.8363339464       18.0163108864      -49.6343104641  TIP3      6026            0.0000000000
     26655      6091  TIP3      OH2           -20.6984041449       15.8033051304      -37.1940289488  TIP3      6027            0.0000000000
     26656      6091  TIP3      H1            -21.0851411158       14.9988344666      -36.8167504068  TIP3      6027            0.0000000000
     26657      6091  TIP3      H2            -19.7837030477       15.7317819871      -36.8337679461  TIP3      6027            0.0000000000
     26658      6092  TIP3      OH2           -18.6572169604       15.1598196990      -35.5654140820  TIP3      6028            0.0000000000
     26659      6092  TIP3      H1            -17.7726276359       14.8068213177      -35.7804825045  TIP3      6028            0.0000000000
     26660      6092  TIP3      H2            -19.0651335472       14.3635584235      -35.1816311343  TIP3      6028            0.0000000000
     26661      6093  TIP3      OH2           -10.2510635436       14.4416382900      -35.4250788965  TIP3      6029            0.0000000000
     26662      6093  TIP3      H1            -10.1835809846       13.9673541965      -34.5787298567  TIP3      6029            0.0000000000
     26663      6093  TIP3      H2             -9.3332242786       14.4115639489      -35.7682025922  TIP3      6029            0.0000000000
     26664      6094  TIP3      OH2            -1.2925664308       23.1215024140      -41.8098730698  TIP3      6030            0.0000000000
     26665      6094  TIP3      H1             -1.3499425425       22.5693864208      -41.0179245254  TIP3      6030            0.0000000000
     26666      6094  TIP3      H2             -0.7666126541       23.8768690188      -41.5243455475  TIP3      6030            0.0000000000
     26667      6095  TIP3      OH2            -3.7727057463       21.4015793605      -47.8811711839  TIP3      6031            0.0000000000
     26668      6095  TIP3      H1             -4.3063789371       22.2001520247      -47.8653744715  TIP3      6031            0.0000000000
     26669      6095  TIP3      H2             -4.3703366961       20.7787105708      -48.3219918678  TIP3      6031            0.0000000000
     26670      6096  TIP3      OH2            13.2186750109       17.6771015363      -42.1687738359  TIP3      6032            0.0000000000
     26671      6096  TIP3      H1             13.3790755003       18.2429458459      -41.3823200235  TIP3      6032            0.0000000000
     26672      6096  TIP3      H2             13.8167040992       18.1102987936      -42.7964086839  TIP3      6032            0.0000000000
     26673      6097  TIP3      OH2             7.8084897890       20.4945026234      -42.5340340020  TIP3      6033            0.0000000000
     26674      6097  TIP3      H1              7.9765038151       19.5380286497      -42.5603184713  TIP3      6033            0.0000000000
     26675      6097  TIP3      H2              7.7058925690       20.7019913787      -43.4782211777  TIP3      6033            0.0000000000
     26676      6098  TIP3      OH2             0.8848073924       18.6012332354      -45.3286839976  TIP3      6034            0.0000000000
     26677      6098  TIP3      H1              1.0163937585       19.4311524414      -45.8270034365  TIP3      6034            0.0000000000
     26678      6098  TIP3      H2              0.5135080684       18.0276146997      -46.0345951952  TIP3      6034            0.0000000000
     26679      6099  TIP3      OH2             8.6596101795       18.6610002721      -46.9608528001  TIP3      6035            0.0000000000
     26680      6099  TIP3      H1              9.2809672245       18.3312774449      -46.2722589747  TIP3      6035            0.0000000000
     26681      6099  TIP3      H2              9.2530678184       19.2481260584      -47.4499741232  TIP3      6035            0.0000000000
     26682      6100  TIP3      OH2            -2.4859228547       20.9417577837      -44.6403501897  TIP3      6036            0.0000000000
     26683      6100  TIP3      H1             -1.8072860665       20.4497527715      -44.1405288167  TIP3      6036            0.0000000000
     26684      6100  TIP3      H2             -2.3305991588       20.6238332310      -45.5378328700  TIP3      6036            0.0000000000
     26685      6101  TIP3      OH2             2.6233042240       22.3214591482      -45.2105965347  TIP3      6037            0.0000000000
     26686      6101  TIP3      H1              3.3678022312       21.7556519235      -44.9394289537  TIP3      6037            0.0000000000
     26687      6101  TIP3      H2              2.1537216304       21.7695939166      -45.8677090847  TIP3      6037            0.0000000000
     26688      6102  TIP3      OH2            13.5974134539       19.0480767066      -39.8785577761  TIP3      6038            0.0000000000
     26689      6102  TIP3      H1             13.0776151893       19.8788300361      -39.9802190251  TIP3      6038            0.0000000000
     26690      6102  TIP3      H2             13.6737462035       19.0066592677      -38.9126780201  TIP3      6038            0.0000000000
     26691      6103  TIP3      OH2            -0.1856592489       17.4280738697      -41.2984312553  TIP3      6039            0.0000000000
     26692      6103  TIP3      H1             -0.4513080845       18.0235378554      -42.0306626840  TIP3      6039            0.0000000000
     26693      6103  TIP3      H2             -0.8322209968       17.6968963924      -40.6017797162  TIP3      6039            0.0000000000
     26694      6104  TIP3      OH2            10.4915751559       18.0188354230      -44.9501085880  TIP3      6040            0.0000000000
     26695      6104  TIP3      H1             10.2670251170       17.2502167922      -44.4206009031  TIP3      6040            0.0000000000
     26696      6104  TIP3      H2             11.1402589317       18.4730841861      -44.3804403249  TIP3      6040            0.0000000000
     26697      6105  TIP3      OH2            -0.6050493977       19.3339312621      -43.2497653133  TIP3      6041            0.0000000000
     26698      6105  TIP3      H1              0.0361631229       19.9997946610      -42.9265311233  TIP3      6041            0.0000000000
     26699      6105  TIP3      H2             -0.0942650814       18.9395460762      -44.0007877116  TIP3      6041            0.0000000000
     26700      6106  TIP3      OH2            10.7891337939       16.6807417379      -41.3044371738  TIP3      6042            0.0000000000
     26701      6106  TIP3      H1             10.0736716252       17.3242590570      -41.4222693979  TIP3      6042            0.0000000000
     26702      6106  TIP3      H2             11.5173107274       17.0951196604      -41.8092540556  TIP3      6042            0.0000000000
     26703      6107  TIP3      OH2             3.7181382939       14.8313049182      -43.8392733716  TIP3      6043            0.0000000000
     26704      6107  TIP3      H1              3.5489326723       13.8731221106      -43.9216203529  TIP3      6043            0.0000000000
     26705      6107  TIP3      H2              2.8511555090       15.1559050608      -43.5055266989  TIP3      6043            0.0000000000
     26706      6108  TIP3      OH2             6.1044977836       22.0962987100      -52.3747438706  TIP3      6044            0.0000000000
     26707      6108  TIP3      H1              6.8016159045       22.1947057025      -51.6916371125  TIP3      6044            0.0000000000
     26708      6108  TIP3      H2              6.4621070964       21.3953791101      -52.9223406638  TIP3      6044            0.0000000000
     26709      6109  TIP3      OH2            13.1070280505       22.9374399052      -41.2850560414  TIP3      6045            0.0000000000
     26710      6109  TIP3      H1             12.7254706030       23.8075663878      -41.1415856221  TIP3      6045            0.0000000000
     26711      6109  TIP3      H2             13.9333959209       23.1973672094      -41.7234504116  TIP3      6045            0.0000000000
     26712      6110  TIP3      OH2             9.4356754763       22.0398661190      -39.2777257359  TIP3      6046            0.0000000000
     26713      6110  TIP3      H1              9.4167656477       22.8867555455      -38.8243866342  TIP3      6046            0.0000000000
     26714      6110  TIP3      H2              8.8235479728       22.2433522927      -40.0231654625  TIP3      6046            0.0000000000
     26715      6111  TIP3      OH2             1.7311696089      -23.8273236120      -42.6382101091  TIP3      6047            0.0000000000
     26716      6111  TIP3      H1              1.8577136010      -23.6469076297      -43.5975396769  TIP3      6047            0.0000000000
     26717      6111  TIP3      H2              1.6259599206      -22.9158959151      -42.3454574168  TIP3      6047            0.0000000000
     26718      6112  TIP3      OH2             8.3701286679       22.8143185981      -50.9996160166  TIP3      6048            0.0000000000
     26719      6112  TIP3      H1              8.7349581063       23.0146736240      -50.1221514649  TIP3      6048            0.0000000000
     26720      6112  TIP3      H2              8.7176580059       23.5395006769      -51.5253934026  TIP3      6048            0.0000000000
     26721      6113  TIP3      OH2            12.1360940659       14.7476196644      -50.7874179001  TIP3      6049            0.0000000000
     26722      6113  TIP3      H1             11.1769601650       14.8368894485      -50.5910868033  TIP3      6049            0.0000000000
     26723      6113  TIP3      H2             12.3201471403       15.5841637705      -51.2573323551  TIP3      6049            0.0000000000
     26724      6114  TIP3      OH2            11.2963882879       20.8630164689      -37.0562736515  TIP3      6050            0.0000000000
     26725      6114  TIP3      H1             10.9038535042       21.3315129417      -37.8057373209  TIP3      6050            0.0000000000
     26726      6114  TIP3      H2             11.2801685732       19.9388732951      -37.3546759375  TIP3      6050            0.0000000000
     26727      6115  TIP3      OH2             1.1603551817       15.7432885609      -43.0993669119  TIP3      6051            0.0000000000
     26728      6115  TIP3      H1              0.2521511714       15.5927918672      -43.4415170296  TIP3      6051            0.0000000000
     26729      6115  TIP3      H2              1.0005370842       16.5420418568      -42.5699182958  TIP3      6051            0.0000000000
     26730      6116  TIP3      OH2             5.8129136960       15.3643122715      -39.7325982549  TIP3      6052            0.0000000000
     26731      6116  TIP3      H1              6.1932928145       14.9417759500      -38.9391381045  TIP3      6052            0.0000000000
     26732      6116  TIP3      H2              4.8382055238       15.2838180588      -39.5831447198  TIP3      6052            0.0000000000
     26733      6117  TIP3      OH2             9.0460588326       19.2885715104      -38.8070319984  TIP3      6053            0.0000000000
     26734      6117  TIP3      H1              8.5057326327       19.0469720759      -38.0138842263  TIP3      6053            0.0000000000
     26735      6117  TIP3      H2              8.8248248352       20.2048377081      -39.0263932719  TIP3      6053            0.0000000000
     26736      6118  TIP3      OH2             5.4644222775       17.9321068439      -52.3997287063  TIP3      6054            0.0000000000
     26737      6118  TIP3      H1              5.1070186266       17.9227776729      -51.4978845242  TIP3      6054            0.0000000000
     26738      6118  TIP3      H2              5.0964218577       17.0906364329      -52.7243940246  TIP3      6054            0.0000000000
     26739      6119  TIP3      OH2             1.2373725812       20.5749464187      -41.6930392420  TIP3      6055            0.0000000000
     26740      6119  TIP3      H1              0.4434231706       20.6996901865      -41.1462553595  TIP3      6055            0.0000000000
     26741      6119  TIP3      H2              1.2548164736       21.4290417948      -42.1896072945  TIP3      6055            0.0000000000
     26742      6120  TIP3      OH2             1.1814964385       20.7311810171      -46.9643099632  TIP3      6056            0.0000000000
     26743      6120  TIP3      H1              0.2315772601       20.5475952399      -47.1259238334  TIP3      6056            0.0000000000
     26744      6120  TIP3      H2              1.5518833809       20.5152117931      -47.8426659716  TIP3      6056            0.0000000000
     26745      6121  TIP3      OH2             6.8686862282       21.4016549588      -48.1047729944  TIP3      6057            0.0000000000
     26746      6121  TIP3      H1              6.2395307398       22.0159666009      -48.5148022749  TIP3      6057            0.0000000000
     26747      6121  TIP3      H2              7.3930354791       21.0758867443      -48.8619565569  TIP3      6057            0.0000000000
     26748      6122  TIP3      OH2             5.8818334447       21.5418405407      -36.7916407710  TIP3      6058            0.0000000000
     26749      6122  TIP3      H1              5.2844573222       20.8085690012      -36.4873409576  TIP3      6058            0.0000000000
     26750      6122  TIP3      H2              6.6570888970       21.3790310480      -36.2260758349  TIP3      6058            0.0000000000
     26751      6123  TIP3      OH2             7.6969718505       20.7628763489      -45.3219108322  TIP3      6059            0.0000000000
     26752      6123  TIP3      H1              7.4417648326       21.2742548990      -46.1067892636  TIP3      6059            0.0000000000
     26753      6123  TIP3      H2              7.8604779617       19.8946056109      -45.7431392129  TIP3      6059            0.0000000000
     26754      6124  TIP3      OH2            -1.1565368513       21.0092055707      -40.1071665092  TIP3      6060            0.0000000000
     26755      6124  TIP3      H1             -1.1185626660       21.3575121136      -39.2065387300  TIP3      6060            0.0000000000
     26756      6124  TIP3      H2             -1.5649036125       20.1377286212      -39.9684810859  TIP3      6060            0.0000000000
     26757      6125  TIP3      OH2             2.1964205606       18.3258739144      -53.3220538451  TIP3      6061            0.0000000000
     26758      6125  TIP3      H1              1.7793103691       17.9701325264      -52.5115050858  TIP3      6061            0.0000000000
     26759      6125  TIP3      H2              1.4799148040       18.7848915856      -53.7731232733  TIP3      6061            0.0000000000
     26760      6126  TIP3      OH2            -4.4589242273       18.0094167944      -46.1277306245  TIP3      6062            0.0000000000
     26761      6126  TIP3      H1             -3.7668677900       18.0072825840      -45.4335353321  TIP3      6062            0.0000000000
     26762      6126  TIP3      H2             -4.0022493536       17.6985746335      -46.9259464755  TIP3      6062            0.0000000000
     26763      6127  TIP3      OH2            -3.2611885277       18.7327956283      -50.8376943574  TIP3      6063            0.0000000000
     26764      6127  TIP3      H1             -2.7091773898       19.3360606823      -51.3787783046  TIP3      6063            0.0000000000
     26765      6127  TIP3      H2             -3.9172783883       19.3868718804      -50.5111172720  TIP3      6063            0.0000000000
     26766      6128  TIP3      OH2             7.0405060030       22.3207671029      -40.6626275167  TIP3      6064            0.0000000000
     26767      6128  TIP3      H1              7.3049293328       21.7617758957      -41.4229449195  TIP3      6064            0.0000000000
     26768      6128  TIP3      H2              6.4513665148       21.7344687846      -40.1521795419  TIP3      6064            0.0000000000
     26769      6129  TIP3      OH2             3.7711432313       18.3604737303      -45.9616271027  TIP3      6065            0.0000000000
     26770      6129  TIP3      H1              2.8350751779       18.3719706547      -45.6801033547  TIP3      6065            0.0000000000
     26771      6129  TIP3      H2              4.2280452967       18.2128979408      -45.1186808370  TIP3      6065            0.0000000000
     26772      6130  TIP3      OH2            -1.4096603952       19.8585916206      -47.0306367387  TIP3      6066            0.0000000000
     26773      6130  TIP3      H1             -2.2700611528       20.0866281650      -47.4333370257  TIP3      6066            0.0000000000
     26774      6130  TIP3      H2             -1.1415728272       19.0550707471      -47.5146979633  TIP3      6066            0.0000000000
     26775      6131  TIP3      OH2             2.2028132725       19.9794887048      -49.4705141149  TIP3      6067            0.0000000000
     26776      6131  TIP3      H1              3.1582566177       20.0725808806      -49.3133064982  TIP3      6067            0.0000000000
     26777      6131  TIP3      H2              1.9948845905       20.6520903789      -50.1510942878  TIP3      6067            0.0000000000
     26778      6132  TIP3      OH2             8.1777731204       17.6157316241      -42.7230090147  TIP3      6068            0.0000000000
     26779      6132  TIP3      H1              7.5033380296       17.6370766789      -42.0086642733  TIP3      6068            0.0000000000
     26780      6132  TIP3      H2              7.6612374907       17.3369658905      -43.4922681610  TIP3      6068            0.0000000000
     26781      6133  TIP3      OH2             0.8903387345       21.1275583190      -51.9083670029  TIP3      6069            0.0000000000
     26782      6133  TIP3      H1              0.4207516334       20.7458085895      -52.6564111247  TIP3      6069            0.0000000000
     26783      6133  TIP3      H2              1.7504452648       21.3646446084      -52.3040991434  TIP3      6069            0.0000000000
     26784      6134  TIP3      OH2             4.9401877421       21.0727320569      -44.1186648722  TIP3      6070            0.0000000000
     26785      6134  TIP3      H1              5.6576587854       20.6112782596      -44.5642531318  TIP3      6070            0.0000000000
     26786      6134  TIP3      H2              4.8832323842       20.6023203176      -43.2760385463  TIP3      6070            0.0000000000
     26787      6135  TIP3      OH2             0.0523849972       17.2606330679      -47.6104103518  TIP3      6071            0.0000000000
     26788      6135  TIP3      H1             -0.2658882061       16.3412423636      -47.5895819353  TIP3      6071            0.0000000000
     26789      6135  TIP3      H2              0.8397027449       17.1802209057      -48.1626643476  TIP3      6071            0.0000000000
     26790      6136  TIP3      OH2             3.6954426587       19.4513965115      -41.6692678884  TIP3      6072            0.0000000000
     26791      6136  TIP3      H1              2.8721707965       19.9733482910      -41.5791978293  TIP3      6072            0.0000000000
     26792      6136  TIP3      H2              4.2547643471       19.7959259943      -40.9501597949  TIP3      6072            0.0000000000
     26793      6137  TIP3      OH2             8.1184741371       18.5034256767      -51.7566147733  TIP3      6073            0.0000000000
     26794      6137  TIP3      H1              7.1675631140       18.6403234873      -51.9230524263  TIP3      6073            0.0000000000
     26795      6137  TIP3      H2              8.4290026664       19.3716317401      -51.4350667342  TIP3      6073            0.0000000000
     26796      6138  TIP3      OH2             8.8189683016       20.4509671139      -50.0874870139  TIP3      6074            0.0000000000
     26797      6138  TIP3      H1              9.7141615799       20.2189043863      -49.7489876912  TIP3      6074            0.0000000000
     26798      6138  TIP3      H2              8.9835304940       21.2141456999      -50.6691881600  TIP3      6074            0.0000000000
     26799      6139  TIP3      OH2             3.2802245161       22.0010946894      -36.3235224971  TIP3      6075            0.0000000000
     26800      6139  TIP3      H1              2.9567951224       22.3115133126      -37.1812565881  TIP3      6075            0.0000000000
     26801      6139  TIP3      H2              4.1834444102       22.3680440794      -36.2595619611  TIP3      6075            0.0000000000
     26802      6140  TIP3      OH2            13.6703896294       20.5305468062      -50.3389086648  TIP3      6076            0.0000000000
     26803      6140  TIP3      H1             13.1682727309       20.2374367262      -51.1258675018  TIP3      6076            0.0000000000
     26804      6140  TIP3      H2             13.7463904424       21.4721725030      -50.5639291696  TIP3      6076            0.0000000000
     26805      6141  TIP3      OH2            -2.3672579516      -23.4915185846      -52.5597674809  TIP3      6077            0.0000000000
     26806      6141  TIP3      H1             -1.7933630951      -23.0270780202      -51.9323865427  TIP3      6077            0.0000000000
     26807      6141  TIP3      H2             -3.2355750881      -23.2959753320      -52.1610355341  TIP3      6077            0.0000000000
     26808      6142  TIP3      OH2            -1.9584176210       18.2143601059      -39.3474599979  TIP3      6078            0.0000000000
     26809      6142  TIP3      H1             -2.8713196275       18.5437443035      -39.3546365141  TIP3      6078            0.0000000000
     26810      6142  TIP3      H2             -2.0706755454       17.3884578867      -38.8560504251  TIP3      6078            0.0000000000
     26811      6143  TIP3      OH2             6.7522164481       17.9568806627      -40.3344480266  TIP3      6079            0.0000000000
     26812      6143  TIP3      H1              7.4624526698       18.0840583315      -39.6997250856  TIP3      6079            0.0000000000
     26813      6143  TIP3      H2              6.3960525211       17.0775705559      -40.1011378843  TIP3      6079            0.0000000000
     26814      6144  TIP3      OH2             7.4869664419       17.5268034887      -49.2584130318  TIP3      6080            0.0000000000
     26815      6144  TIP3      H1              7.7251421529       17.9441944923      -50.1082509845  TIP3      6080            0.0000000000
     26816      6144  TIP3      H2              8.0682302604       17.9964778723      -48.6403390914  TIP3      6080            0.0000000000
     26817      6145  TIP3      OH2             4.7413756745       19.2647454234      -48.4620307934  TIP3      6081            0.0000000000
     26818      6145  TIP3      H1              5.4744473076       19.8918265295      -48.4008138895  TIP3      6081            0.0000000000
     26819      6145  TIP3      H2              4.4257956822       19.1702176538      -47.5400016792  TIP3      6081            0.0000000000
     26820      6146  TIP3      OH2             5.2986822590       20.3522905050      -39.2065385210  TIP3      6082            0.0000000000
     26821      6146  TIP3      H1              5.3637414778       20.8395967946      -38.3682148471  TIP3      6082            0.0000000000
     26822      6146  TIP3      H2              5.9335560812       19.6223997342      -39.1419522817  TIP3      6082            0.0000000000
     26823      6147  TIP3      OH2             5.5589149349       16.3245424715      -47.6189097926  TIP3      6083            0.0000000000
     26824      6147  TIP3      H1              5.2336443634       16.9656059248      -46.9646343903  TIP3      6083            0.0000000000
     26825      6147  TIP3      H2              6.2705436767       16.8756008468      -48.0313623758  TIP3      6083            0.0000000000
     26826      6148  TIP3      OH2             1.2374308143       17.4445855358      -50.8864480883  TIP3      6084            0.0000000000
     26827      6148  TIP3      H1              1.1782888529       18.3337015760      -50.4831608301  TIP3      6084            0.0000000000
     26828      6148  TIP3      H2              2.1394242038       17.1884589003      -50.6027279401  TIP3      6084            0.0000000000
     26829      6149  TIP3      OH2            11.4248914672       18.1429719853      -38.4187970383  TIP3      6085            0.0000000000
     26830      6149  TIP3      H1             10.5030588092       18.4619748021      -38.5492058983  TIP3      6085            0.0000000000
     26831      6149  TIP3      H2             11.7509393677       18.1626889596      -39.3337668053  TIP3      6085            0.0000000000
     26832      6150  TIP3      OH2            10.0618592846       21.7918572084      -44.5386321759  TIP3      6086            0.0000000000
     26833      6150  TIP3      H1              9.1678828994       21.4314071635      -44.6308979185  TIP3      6086            0.0000000000
     26834      6150  TIP3      H2             10.4797888084       21.1857474835      -43.8900020396  TIP3      6086            0.0000000000
     26835      6151  TIP3      OH2            -2.2284739104       20.5227473340      -52.6753185623  TIP3      6087            0.0000000000
     26836      6151  TIP3      H1             -2.1877095109       21.4875610724      -52.4970166007  TIP3      6087            0.0000000000
     26837      6151  TIP3      H2             -3.1036008245       20.3877742889      -53.0397352513  TIP3      6087            0.0000000000
     26838      6152  TIP3      OH2            -1.3798787248       15.3542281227      -43.9087304432  TIP3      6088            0.0000000000
     26839      6152  TIP3      H1             -1.5400825196       15.3622961279      -44.8774843753  TIP3      6088            0.0000000000
     26840      6152  TIP3      H2             -1.7681065838       14.4851870160      -43.6740935932  TIP3      6088            0.0000000000
     26841      6153  TIP3      OH2            -2.4770246840       22.7060338053      -36.2104504884  TIP3      6089            0.0000000000
     26842      6153  TIP3      H1             -1.9967315617       21.8773378138      -36.1458962006  TIP3      6089            0.0000000000
     26843      6153  TIP3      H2             -2.6610742816       22.9276487174      -35.2650625814  TIP3      6089            0.0000000000
     26844      6154  TIP3      OH2             1.4993059162       21.9398884205      -38.6908520087  TIP3      6090            0.0000000000
     26845      6154  TIP3      H1              0.9217345534       22.6874974964      -38.4805389853  TIP3      6090            0.0000000000
     26846      6154  TIP3      H2              1.8674903046       22.1643226843      -39.5614469452  TIP3      6090            0.0000000000
     26847      6155  TIP3      OH2             3.3212694556       22.0977823044      -52.6692324780  TIP3      6091            0.0000000000
     26848      6155  TIP3      H1              3.1645355589       22.1469121231      -53.6378952581  TIP3      6091            0.0000000000
     26849      6155  TIP3      H2              4.2615619555       22.3588177790      -52.6516010388  TIP3      6091            0.0000000000
     26850      6156  TIP3      OH2             1.9316790327       19.1770674274      -37.7640218003  TIP3      6092            0.0000000000
     26851      6156  TIP3      H1              2.0675580519       18.4767648344      -38.4250532859  TIP3      6092            0.0000000000
     26852      6156  TIP3      H2              1.8827793830       19.9875370692      -38.2973955875  TIP3      6092            0.0000000000
     26853      6157  TIP3      OH2             2.3391845311       17.5495827028      -40.1996906664  TIP3      6093            0.0000000000
     26854      6157  TIP3      H1              2.8501497465       18.0516766023      -40.8744432530  TIP3      6093            0.0000000000
     26855      6157  TIP3      H2              1.4303225025       17.6122025834      -40.5645649139  TIP3      6093            0.0000000000
     26856      6158  TIP3      OH2             4.1157133830      -24.0522339385      -40.1703405440  TIP3      6094            0.0000000000
     26857      6158  TIP3      H1              4.9437066739      -24.0218144987      -40.6724323528  TIP3      6094            0.0000000000
     26858      6158  TIP3      H2              3.7556054334      -23.1834271274      -40.3206544378  TIP3      6094            0.0000000000
     26859      6159  TIP3      OH2             8.2819714646       20.8524559540      -34.9838615977  TIP3      6095            0.0000000000
     26860      6159  TIP3      H1              8.4309299453       19.9008634426      -35.0971116991  TIP3      6095            0.0000000000
     26861      6159  TIP3      H2              9.1943057508       21.1827423740      -35.0056019108  TIP3      6095            0.0000000000
     26862      6160  TIP3      OH2             0.3169598022       20.5341858240      -35.8386889296  TIP3      6096            0.0000000000
     26863      6160  TIP3      H1             -0.3799959631       19.8557334572      -35.9557920253  TIP3      6096            0.0000000000
     26864      6160  TIP3      H2              1.0305646738       20.1926721624      -36.4152923494  TIP3      6096            0.0000000000
     26865      6161  TIP3      OH2             3.1280403262       15.0637910161      -39.8069322797  TIP3      6097            0.0000000000
     26866      6161  TIP3      H1              2.9055350633       16.0247540001      -39.8979027908  TIP3      6097            0.0000000000
     26867      6161  TIP3      H2              2.3825853536       14.6826906259      -40.3060124872  TIP3      6097            0.0000000000
     26868      6162  TIP3      OH2             4.4263849243       19.3567138591      -36.1533191107  TIP3      6098            0.0000000000
     26869      6162  TIP3      H1              4.0609262271       19.1921253328      -35.2603968551  TIP3      6098            0.0000000000
     26870      6162  TIP3      H2              3.6392775576       19.1736688943      -36.6911376425  TIP3      6098            0.0000000000
     26871      6163  TIP3      OH2             7.1349951978       18.5924953633      -37.0075494213  TIP3      6099            0.0000000000
     26872      6163  TIP3      H1              6.1660572107       18.6379288503      -36.9317784432  TIP3      6099            0.0000000000
     26873      6163  TIP3      H2              7.3502946023       17.9273503284      -36.3235763254  TIP3      6099            0.0000000000
     26874      6164  TIP3      OH2             8.6576775918       17.1745279957      -35.1813528212  TIP3      6100            0.0000000000
     26875      6164  TIP3      H1              8.6512037147       16.1941450538      -35.1395090402  TIP3      6100            0.0000000000
     26876      6164  TIP3      H2              8.4667426621       17.4662026936      -34.2681928001  TIP3      6100            0.0000000000
     26877      6165  TIP3      OH2            -1.5418057560       18.4787967282      -36.0024294994  TIP3      6101            0.0000000000
     26878      6165  TIP3      H1             -1.3286288124       17.7396363475      -36.6014648587  TIP3      6101            0.0000000000
     26879      6165  TIP3      H2             -1.6645296612       18.0110138877      -35.1514961514  TIP3      6101            0.0000000000
     26880      6166  TIP3      OH2             3.3316531322       14.4961442354      -37.0948892425  TIP3      6102            0.0000000000
     26881      6166  TIP3      H1              3.9959993420       13.7803279748      -37.0871785636  TIP3      6102            0.0000000000
     26882      6166  TIP3      H2              3.2038714075       14.5868620364      -38.0621278350  TIP3      6102            0.0000000000
     26883      6167  TIP3      OH2             3.6871121493       16.0775293751      -34.9316186478  TIP3      6103            0.0000000000
     26884      6167  TIP3      H1              3.5032883566       15.5573661486      -35.7533412873  TIP3      6103            0.0000000000
     26885      6167  TIP3      H2              3.1041815538       16.8561871371      -35.0462348147  TIP3      6103            0.0000000000
     26886      6168  TIP3      OH2            12.1791026375       20.6021243711      -52.7198125581  TIP3      6104            0.0000000000
     26887      6168  TIP3      H1             12.3166155913       21.2619799830      -53.4136372878  TIP3      6104            0.0000000000
     26888      6168  TIP3      H2             12.0573410853       19.7733353164      -53.2310546477  TIP3      6104            0.0000000000
     26889      6169  TIP3      OH2            11.3731144258       22.0574925476      -47.1061817543  TIP3      6105            0.0000000000
     26890      6169  TIP3      H1             11.2075278777       21.1057478537      -47.1172758142  TIP3      6105            0.0000000000
     26891      6169  TIP3      H2             11.1058535493       22.2851992406      -46.2025458059  TIP3      6105            0.0000000000
     26892      6170  TIP3      OH2            13.7254494127       21.9705396781      -36.6771441661  TIP3      6106            0.0000000000
     26893      6170  TIP3      H1             12.8651569026       21.5556233427      -36.8478669208  TIP3      6106            0.0000000000
     26894      6170  TIP3      H2             14.3124574902       21.2045291795      -36.8228245989  TIP3      6106            0.0000000000
     26895      6171  TIP3      OH2            11.4587218136       18.1397998106      -53.5788338321  TIP3      6107            0.0000000000
     26896      6171  TIP3      H1             12.0511144375       17.6810520874      -52.9526547188  TIP3      6107            0.0000000000
     26897      6171  TIP3      H2             10.6045924972       17.7023553210      -53.4505844327  TIP3      6107            0.0000000000
     26898      6172  TIP3      OH2            10.9777414974       19.7135240558      -48.5910203794  TIP3      6108            0.0000000000
     26899      6172  TIP3      H1             11.2765654961       18.7854367265      -48.4459315178  TIP3      6108            0.0000000000
     26900      6172  TIP3      H2             11.8130332335       20.0883011824      -48.9056603607  TIP3      6108            0.0000000000
     26901      6173  TIP3      OH2            11.7032722908       20.1078102120      -43.1004702107  TIP3      6109            0.0000000000
     26902      6173  TIP3      H1             12.6406713329       20.4016226586      -43.1697736084  TIP3      6109            0.0000000000
     26903      6173  TIP3      H2             11.4904656654       20.4053056158      -42.2087651735  TIP3      6109            0.0000000000
     26904      6174  TIP3      OH2            11.7292194205       20.9386645474      -40.2160279340  TIP3      6110            0.0000000000
     26905      6174  TIP3      H1             10.8108554812       21.2351720382      -40.0515093267  TIP3      6110            0.0000000000
     26906      6174  TIP3      H2             12.1601660304       21.7158308155      -40.6618461211  TIP3      6110            0.0000000000
     26907      6175  TIP3      OH2            -3.9714459449       19.4164623848      -36.8388256173  TIP3      6111            0.0000000000
     26908      6175  TIP3      H1             -3.0429020330       19.2149042302      -36.6100956095  TIP3      6111            0.0000000000
     26909      6175  TIP3      H2             -4.4465119926       18.6073250548      -36.5559165866  TIP3      6111            0.0000000000
     26910      6176  TIP3      OH2            14.0376449809       15.0213416002      -35.0385512915  TIP3      6112            0.0000000000
     26911      6176  TIP3      H1             14.3859480355       14.3474159962      -35.6462535089  TIP3      6112            0.0000000000
     26912      6176  TIP3      H2             14.0932956601       15.8168811063      -35.6076691148  TIP3      6112            0.0000000000
     26913      6177  TIP3      OH2            11.7020099583       16.9717583074      -48.5479302696  TIP3      6113            0.0000000000
     26914      6177  TIP3      H1             11.9524085712       16.5465459727      -47.6943431586  TIP3      6113            0.0000000000
     26915      6177  TIP3      H2             11.1339802449       16.2973838125      -48.9716079657  TIP3      6113            0.0000000000
     26916      6178  TIP3      OH2            -2.8041461716       17.7479891465      -43.9697591160  TIP3      6114            0.0000000000
     26917      6178  TIP3      H1             -2.3528077114       16.9136664973      -43.7370776005  TIP3      6114            0.0000000000
     26918      6178  TIP3      H2             -2.2198214570       18.4250901266      -43.6021208851  TIP3      6114            0.0000000000
     26919      6179  TIP3      OH2            -4.5251158807       20.7498477576      -42.9744574192  TIP3      6115            0.0000000000
     26920      6179  TIP3      H1             -3.9544722173       20.5059587942      -43.7335581441  TIP3      6115            0.0000000000
     26921      6179  TIP3      H2             -4.0708327858       21.5605951317      -42.7062056007  TIP3      6115            0.0000000000
     26922      6180  TIP3      OH2            13.5355843282       17.1161681396      -36.6779476714  TIP3      6116            0.0000000000
     26923      6180  TIP3      H1             12.6045774562       17.4113672806      -36.7215026689  TIP3      6116            0.0000000000
     26924      6180  TIP3      H2             13.5360669473       16.5542804483      -37.4685815226  TIP3      6116            0.0000000000
     26925      6181  TIP3      OH2            13.5119161976       16.9704908309      -51.9751573133  TIP3      6117            0.0000000000
     26926      6181  TIP3      H1             13.9152831252       16.2699952541      -52.5368321802  TIP3      6117            0.0000000000
     26927      6181  TIP3      H2             14.2308381757       17.6148831764      -51.9272180907  TIP3      6117            0.0000000000
     26928      6182  TIP3      OH2            -4.1616646505       17.0510961880      -48.8668009041  TIP3      6118            0.0000000000
     26929      6182  TIP3      H1             -5.1056004521       17.1815685382      -49.0329282977  TIP3      6118            0.0000000000
     26930      6182  TIP3      H2             -3.7614767583       17.5256674064      -49.6141416219  TIP3      6118            0.0000000000
     26931      6183  TIP3      OH2            -4.2160816113       15.6622699037      -40.5761746164  TIP3      6119            0.0000000000
     26932      6183  TIP3      H1             -4.8797863930       15.4664337060      -39.8941217719  TIP3      6119            0.0000000000
     26933      6183  TIP3      H2             -4.6733623177       16.3341189249      -41.1220569938  TIP3      6119            0.0000000000
     26934      6184  TIP3      OH2            12.5614841923       15.1696453358      -38.7852950253  TIP3      6120            0.0000000000
     26935      6184  TIP3      H1             11.7485875453       15.4915839798      -39.2113890428  TIP3      6120            0.0000000000
     26936      6184  TIP3      H2             12.7200200147       14.3394045906      -39.2936966116  TIP3      6120            0.0000000000
     26937      6185  TIP3      OH2             5.9510211150       16.6062152268      -44.5400573397  TIP3      6121            0.0000000000
     26938      6185  TIP3      H1              5.2691870857       15.9793517217      -44.2421361468  TIP3      6121            0.0000000000
     26939      6185  TIP3      H2              6.4941612665       16.0538861791      -45.1109663870  TIP3      6121            0.0000000000
     26940      6186  TIP3      OH2            11.1040366101       14.6259056746      -44.5081037002  TIP3      6122            0.0000000000
     26941      6186  TIP3      H1             11.6950922218       15.2432299135      -45.0084615314  TIP3      6122            0.0000000000
     26942      6186  TIP3      H2             10.2122100236       14.9942735421      -44.7094550140  TIP3      6122            0.0000000000
     26943      6187  TIP3      OH2            12.7368353647       15.9242073652      -46.2375575252  TIP3      6123            0.0000000000
     26944      6187  TIP3      H1             13.4271414410       15.3288859593      -46.6187041294  TIP3      6123            0.0000000000
     26945      6187  TIP3      H2             13.2748178280       16.7384031446      -46.0874009736  TIP3      6123            0.0000000000
     26946      6188  TIP3      OH2            -1.6581825330       15.2176210207      -46.6764201170  TIP3      6124            0.0000000000
     26947      6188  TIP3      H1             -2.4627906268       15.0641281474      -47.2072622437  TIP3      6124            0.0000000000
     26948      6188  TIP3      H2             -1.2336115992       14.3392393906      -46.7568711544  TIP3      6124            0.0000000000
     26949      6189  TIP3      OH2            -2.9315240838       14.9828510265      -51.0010333979  TIP3      6125            0.0000000000
     26950      6189  TIP3      H1             -2.4053218959       15.6385910068      -51.4939778341  TIP3      6125            0.0000000000
     26951      6189  TIP3      H2             -3.4649621530       15.5518605646      -50.4235666879  TIP3      6125            0.0000000000
     26952      6190  TIP3      OH2             2.7519298879       15.1428392480      -46.8914935409  TIP3      6126            0.0000000000
     26953      6190  TIP3      H1              3.6521263663       15.4959670699      -47.0072566851  TIP3      6126            0.0000000000
     26954      6190  TIP3      H2              2.7548616063       14.9316892451      -45.9584514878  TIP3      6126            0.0000000000
     26955      6191  TIP3      OH2             8.5439725539       15.1653564342      -45.3035652749  TIP3      6127            0.0000000000
     26956      6191  TIP3      H1              8.4322733640       15.3015302856      -46.2531510314  TIP3      6127            0.0000000000
     26957      6191  TIP3      H2              8.1366413521       14.2764307505      -45.1630671119  TIP3      6127            0.0000000000
     26958      6192  TIP3      OH2             9.7638707318       15.1921770435      -49.6032382830  TIP3      6128            0.0000000000
     26959      6192  TIP3      H1              9.0041558008       15.7789011155      -49.7352662317  TIP3      6128            0.0000000000
     26960      6192  TIP3      H2              9.3365267354       14.3463154655      -49.3249672174  TIP3      6128            0.0000000000
     26961      6193  TIP3      OH2            -1.1124419789       16.9164145774      -52.4323993058  TIP3      6129            0.0000000000
     26962      6193  TIP3      H1             -0.5802167464       16.3147482149      -52.9793437435  TIP3      6129            0.0000000000
     26963      6193  TIP3      H2             -0.4349786007       17.2421971345      -51.8126413307  TIP3      6129            0.0000000000
     26964      6194  TIP3      OH2             3.8924552706       17.1383820486      -50.0461049746  TIP3      6130            0.0000000000
     26965      6194  TIP3      H1              4.1926086570       16.5880527295      -49.3036136424  TIP3      6130            0.0000000000
     26966      6194  TIP3      H2              4.0176412581       18.0176777585      -49.6327496981  TIP3      6130            0.0000000000
     26967      6195  TIP3      OH2            -1.8050994515       15.7872106400      -37.2374624424  TIP3      6131            0.0000000000
     26968      6195  TIP3      H1             -2.2253532178       14.9832851861      -36.8831737591  TIP3      6131            0.0000000000
     26969      6195  TIP3      H2             -0.9123483634       15.7193330773      -36.8208269459  TIP3      6131            0.0000000000
     26970      6196  TIP3      OH2             0.1839673648       15.1753064431      -35.5495973293  TIP3      6132            0.0000000000
     26971      6196  TIP3      H1              1.0742435214       14.8406010902      -35.7839458877  TIP3      6132            0.0000000000
     26972      6196  TIP3      H2             -0.1825771021       14.3565623951      -35.1650722050  TIP3      6132            0.0000000000
     26973      6197  TIP3      OH2             8.5994322262       14.4369556604      -35.4201797473  TIP3      6133            0.0000000000
     26974      6197  TIP3      H1              8.6838101177       13.9567113037      -34.5729262306  TIP3      6133            0.0000000000
     26975      6197  TIP3      H2              9.5176964876       14.4013087976      -35.7596539528  TIP3      6133            0.0000000000
     26976      6198  TIP3      OH2            17.5638865265       23.1196901256      -41.8008313480  TIP3      6134            0.0000000000
     26977      6198  TIP3      H1             17.5022973512       22.5730823281      -41.0046916480  TIP3      6134            0.0000000000
     26978      6198  TIP3      H2             18.0973752378       23.8686086426      -41.5141197502  TIP3      6134            0.0000000000
     26979      6199  TIP3      OH2            15.0642032969       21.4131797848      -47.8969087908  TIP3      6135            0.0000000000
     26980      6199  TIP3      H1             14.5233616874       22.2052398046      -47.8740894482  TIP3      6135            0.0000000000
     26981      6199  TIP3      H2             14.4685462239       20.7831071046      -48.3312977812  TIP3      6135            0.0000000000
     26982      6200  TIP3      OH2            19.5432822430       18.5853464516      -45.2978121353  TIP3      6136            0.0000000000
     26983      6200  TIP3      H1             19.8992770047       19.3726941650      -45.7666590119  TIP3      6136            0.0000000000
     26984      6200  TIP3      H2             19.2799236327       18.0265440016      -46.0594799876  TIP3      6136            0.0000000000
     26985      6201  TIP3      OH2            16.3831466542       20.9334715343      -44.6409712362  TIP3      6137            0.0000000000
     26986      6201  TIP3      H1             17.0684050101       20.4393839680      -44.1489911364  TIP3      6137            0.0000000000
     26987      6201  TIP3      H2             16.5385992255       20.6170321248      -45.5405225776  TIP3      6137            0.0000000000
     26988      6202  TIP3      OH2            21.4769024787       22.3298918950      -45.2556510048  TIP3      6138            0.0000000000
     26989      6202  TIP3      H1             22.1911751944       21.7583110381      -44.9143741476  TIP3      6138            0.0000000000
     26990      6202  TIP3      H2             20.9632687764       21.7243634059      -45.8292188402  TIP3      6138            0.0000000000
     26991      6203  TIP3      OH2            18.6106296365       17.4321447723      -41.2875274907  TIP3      6139            0.0000000000
     26992      6203  TIP3      H1             18.3885751084       18.0524085035      -42.0186209853  TIP3      6139            0.0000000000
     26993      6203  TIP3      H2             17.9660072717       17.7129037963      -40.5943252580  TIP3      6139            0.0000000000
     26994      6204  TIP3      OH2            18.2199988464       19.3564179402      -43.2270652970  TIP3      6140            0.0000000000
     26995      6204  TIP3      H1             18.8919090236       19.9990390950      -42.9162193572  TIP3      6140            0.0000000000
     26996      6204  TIP3      H2             18.7026114566       18.9596231843      -44.0022962782  TIP3      6140            0.0000000000
     26997      6205  TIP3      OH2            22.5565614992       14.8060282016      -43.8910623658  TIP3      6141            0.0000000000
     26998      6205  TIP3      H1             22.4669386350       13.8487704870      -43.8483876207  TIP3      6141            0.0000000000
     26999      6205  TIP3      H2             21.7221085298       15.1340003085      -43.5146517159  TIP3      6141            0.0000000000
     27000      6206  TIP3      OH2            20.5770004375      -23.8368159059      -42.5926437895  TIP3      6142            0.0000000000
     27001      6206  TIP3      H1             20.6889366554      -23.6854993663      -43.5551948581  TIP3      6142            0.0000000000
     27002      6206  TIP3      H2             20.4468166646      -22.9102484193      -42.3397549613  TIP3      6142            0.0000000000
     27003      6207  TIP3      OH2            20.0171638352       15.7645610639      -43.1046085248  TIP3      6143            0.0000000000
     27004      6207  TIP3      H1             19.1013749405       15.5963548764      -43.4227306299  TIP3      6143            0.0000000000
     27005      6207  TIP3      H2             19.8645441325       16.5641232040      -42.5697429269  TIP3      6143            0.0000000000
     27006      6208  TIP3      OH2            20.0964629082       20.5478469204      -41.7002027377  TIP3      6144            0.0000000000
     27007      6208  TIP3      H1             19.2937441654       20.6970295487      -41.1686071880  TIP3      6144            0.0000000000
     27008      6208  TIP3      H2             20.1724452900       21.4129635945      -42.1771899429  TIP3      6144            0.0000000000
     27009      6209  TIP3      OH2            20.0350767983       20.7666087183      -46.9988180808  TIP3      6145            0.0000000000
     27010      6209  TIP3      H1             19.0828910076       20.5588969296      -47.1233132049  TIP3      6145            0.0000000000
     27011      6209  TIP3      H2             20.4035151385       20.4827935902      -47.8556314899  TIP3      6145            0.0000000000
     27012      6210  TIP3      OH2            17.7181125470       21.0139406089      -40.0958303124  TIP3      6146            0.0000000000
     27013      6210  TIP3      H1             17.7504598825       21.3645094050      -39.1975225125  TIP3      6146            0.0000000000
     27014      6210  TIP3      H2             17.2932923685       20.1501056640      -39.9590681162  TIP3      6146            0.0000000000
     27015      6211  TIP3      OH2            20.9522383811       18.1530760187      -53.2550503386  TIP3      6147            0.0000000000
     27016      6211  TIP3      H1             20.5142011932       17.9154870065      -52.4220195423  TIP3      6147            0.0000000000
     27017      6211  TIP3      H2             20.3413440102       18.7601755496      -53.6899144421  TIP3      6147            0.0000000000
     27018      6212  TIP3      OH2            14.3968220244       18.0083729134      -46.1275746530  TIP3      6148            0.0000000000
     27019      6212  TIP3      H1             15.0885086949       18.0080913505      -45.4334781139  TIP3      6148            0.0000000000
     27020      6212  TIP3      H2             14.8538229505       17.6988914919      -46.9254725824  TIP3      6148            0.0000000000
     27021      6213  TIP3      OH2            15.5653233365       18.7356438646      -50.8306378576  TIP3      6149            0.0000000000
     27022      6213  TIP3      H1             16.1247962780       19.3444350516      -51.3566488585  TIP3      6149            0.0000000000
     27023      6213  TIP3      H2             14.9183844930       19.3949147742      -50.5021842926  TIP3      6149            0.0000000000
     27024      6214  TIP3      OH2            22.0965784195       18.5714273163      -45.8068265780  TIP3      6150            0.0000000000
     27025      6214  TIP3      H1             21.2954038924       18.2439939067      -45.3650507475  TIP3      6150            0.0000000000
     27026      6214  TIP3      H2             22.7745379123       18.4251946616      -45.1351505502  TIP3      6150            0.0000000000
     27027      6215  TIP3      OH2            17.4267304210       19.8693541473      -47.0279945166  TIP3      6151            0.0000000000
     27028      6215  TIP3      H1             16.5725279004       20.0914221121      -47.4385290976  TIP3      6151            0.0000000000
     27029      6215  TIP3      H2             17.6930538361       19.0617887102      -47.5021077173  TIP3      6151            0.0000000000
     27030      6216  TIP3      OH2            21.1416935139       19.9679542165      -49.4465022846  TIP3      6152            0.0000000000
     27031      6216  TIP3      H1             22.0499493751       20.2062018925      -49.3050345145  TIP3      6152            0.0000000000
     27032      6216  TIP3      H2             20.8442092251       20.5943329352      -50.1426972170  TIP3      6152            0.0000000000
     27033      6217  TIP3      OH2            19.8332273873       21.0934601313      -51.8824534809  TIP3      6153            0.0000000000
     27034      6217  TIP3      H1             19.2573333625       20.7794975185      -52.5947052644  TIP3      6153            0.0000000000
     27035      6217  TIP3      H2             20.6373047215       21.3883197866      -52.3508909271  TIP3      6153            0.0000000000
     27036      6218  TIP3      OH2            18.9228010427       17.2842077430      -47.6208389697  TIP3      6154            0.0000000000
     27037      6218  TIP3      H1             18.5785350840       16.3711178422      -47.5896782507  TIP3      6154            0.0000000000
     27038      6218  TIP3      H2             19.7003244859       17.1896517132      -48.1775880472  TIP3      6154            0.0000000000
     27039      6219  TIP3      OH2            22.4225171584       19.2341453479      -41.3868903920  TIP3      6155            0.0000000000
     27040      6219  TIP3      H1             21.7738619103       19.9089561014      -41.6891756040  TIP3      6155            0.0000000000
     27041      6219  TIP3      H2             23.0816497093       19.8045024571      -40.9911394823  TIP3      6155            0.0000000000
     27042      6220  TIP3      OH2            22.2981553379       22.0717015677      -36.3354576607  TIP3      6156            0.0000000000
     27043      6220  TIP3      H1             21.8433684266       22.3820146204      -37.1319948293  TIP3      6156            0.0000000000
     27044      6220  TIP3      H2             23.1980724790       22.4462550193      -36.3496704385  TIP3      6156            0.0000000000
     27045      6221  TIP3      OH2            16.4950753749      -23.4955125260      -52.5577851420  TIP3      6157            0.0000000000
     27046      6221  TIP3      H1             17.0734878137      -23.0176569628      -51.9445480066  TIP3      6157            0.0000000000
     27047      6221  TIP3      H2             15.6245634307      -23.2980608082      -52.1610800004  TIP3      6157            0.0000000000
     27048      6222  TIP3      OH2            16.8735802901       18.2220222362      -39.3413528286  TIP3      6158            0.0000000000
     27049      6222  TIP3      H1             15.9590319158       18.5422143200      -39.3508708687  TIP3      6158            0.0000000000
     27050      6222  TIP3      H2             16.7720019077       17.3932100819      -38.8484452573  TIP3      6158            0.0000000000
     27051      6223  TIP3      OH2            19.9110546846       17.5051244257      -50.8593664653  TIP3      6159            0.0000000000
     27052      6223  TIP3      H1             19.9386290287       18.3927813516      -50.4657773886  TIP3      6159            0.0000000000
     27053      6223  TIP3      H2             20.8448997978       17.2421321416      -50.6719749641  TIP3      6159            0.0000000000
     27054      6224  TIP3      OH2            16.6353945142       20.5278421332      -52.6719655709  TIP3      6160            0.0000000000
     27055      6224  TIP3      H1             16.6643666460       21.4915350527      -52.4963952089  TIP3      6160            0.0000000000
     27056      6224  TIP3      H2             15.7598145923       20.3844836306      -53.0376924672  TIP3      6160            0.0000000000
     27057      6225  TIP3      OH2            17.4504309957       15.3444955836      -43.8905853205  TIP3      6161            0.0000000000
     27058      6225  TIP3      H1             17.3325594884       15.3745717742      -44.8673882398  TIP3      6161            0.0000000000
     27059      6225  TIP3      H2             17.0634501046       14.4683928285      -43.6807849843  TIP3      6161            0.0000000000
     27060      6226  TIP3      OH2            16.3710875650       22.7069294687      -36.2086299665  TIP3      6162            0.0000000000
     27061      6226  TIP3      H1             16.8718543727       21.8889500418      -36.1587556304  TIP3      6162            0.0000000000
     27062      6226  TIP3      H2             16.1947611163       22.9280316217      -35.2631475566  TIP3      6162            0.0000000000
     27063      6227  TIP3      OH2            20.2676003847       21.9088730814      -38.6877662787  TIP3      6163            0.0000000000
     27064      6227  TIP3      H1             19.7800539952       22.7052608243      -38.4466379965  TIP3      6163            0.0000000000
     27065      6227  TIP3      H2             20.7183133031       22.1610940292      -39.5104037168  TIP3      6163            0.0000000000
     27066      6228  TIP3      OH2            22.2323463453       22.1293806886      -52.6539828469  TIP3      6164            0.0000000000
     27067      6228  TIP3      H1             21.9701408344       22.0483076722      -53.6064230067  TIP3      6164            0.0000000000
     27068      6228  TIP3      H2             23.1399708269       22.3913599361      -52.8123034785  TIP3      6164            0.0000000000
     27069      6229  TIP3      OH2            20.7957141537       19.1300837107      -37.8041372089  TIP3      6165            0.0000000000
     27070      6229  TIP3      H1             20.9464802886       18.4487573523      -38.4853767479  TIP3      6165            0.0000000000
     27071      6229  TIP3      H2             20.7418702169       19.9616867059      -38.3134327281  TIP3      6165            0.0000000000
     27072      6230  TIP3      OH2            21.1252884937       17.4353876472      -40.1907608685  TIP3      6166            0.0000000000
     27073      6230  TIP3      H1             21.6446501956       18.0412234121      -40.7732940695  TIP3      6166            0.0000000000
     27074      6230  TIP3      H2             20.2407179855       17.5915588684      -40.5706656592  TIP3      6166            0.0000000000
     27075      6231  TIP3      OH2            22.9363837653      -24.2009785217      -40.0914323064  TIP3      6167            0.0000000000
     27076      6231  TIP3      H1             23.7665045730      -24.0831752835      -40.5739568980  TIP3      6167            0.0000000000
     27077      6231  TIP3      H2             22.6162691071      -23.3132215440      -40.2756564620  TIP3      6167            0.0000000000
     27078      6232  TIP3      OH2            19.1841487589       20.5377260692      -35.8402478185  TIP3      6168            0.0000000000
     27079      6232  TIP3      H1             18.4829296694       19.8714798257      -35.9992420684  TIP3      6168            0.0000000000
     27080      6232  TIP3      H2             19.9113510234       20.1988915838      -36.4017594873  TIP3      6168            0.0000000000
     27081      6233  TIP3      OH2            21.6590714432       14.9806562413      -39.6068215959  TIP3      6169            0.0000000000
     27082      6233  TIP3      H1             21.6055421269       15.9511614641      -39.8029041862  TIP3      6169            0.0000000000
     27083      6233  TIP3      H2             21.0454914797       14.6367469244      -40.2802265099  TIP3      6169            0.0000000000
     27084      6234  TIP3      OH2            22.7986896049       19.5836349542      -35.6487481532  TIP3      6170            0.0000000000
     27085      6234  TIP3      H1             22.7980024121       18.8499693521      -35.0431767287  TIP3      6170            0.0000000000
     27086      6234  TIP3      H2             22.2982317182       19.2770799077      -36.4347213518  TIP3      6170            0.0000000000
     27087      6235  TIP3      OH2            17.2848324235       18.4575757990      -36.0138836970  TIP3      6171            0.0000000000
     27088      6235  TIP3      H1             17.5365495421       17.7226608225      -36.6040794420  TIP3      6171            0.0000000000
     27089      6235  TIP3      H2             17.2270122705       18.0073317317      -35.1476238473  TIP3      6171            0.0000000000
     27090      6236  TIP3      OH2            22.2015424242       14.4545078553      -37.0861089145  TIP3      6172            0.0000000000
     27091      6236  TIP3      H1             22.9393155410       13.8303740033      -37.1297865346  TIP3      6172            0.0000000000
     27092      6236  TIP3      H2             22.0286138427       14.6156680409      -38.0455032707  TIP3      6172            0.0000000000
     27093      6237  TIP3      OH2            22.5375914260       16.0412323320      -34.9419915402  TIP3      6173            0.0000000000
     27094      6237  TIP3      H1             22.3975085358       15.5542897452      -35.7907015873  TIP3      6173            0.0000000000
     27095      6237  TIP3      H2             21.9318037682       16.8146336676      -35.0007588448  TIP3      6173            0.0000000000
     27096      6238  TIP3      OH2            14.8840309917       19.4240465381      -36.8385214538  TIP3      6174            0.0000000000
     27097      6238  TIP3      H1             15.8149128494       19.2245663653      -36.6095135198  TIP3      6174            0.0000000000
     27098      6238  TIP3      H2             14.4161771415       18.6115710130      -36.5541970406  TIP3      6174            0.0000000000
     27099      6239  TIP3      OH2            16.0543404762       17.7504832080      -43.9672156690  TIP3      6175            0.0000000000
     27100      6239  TIP3      H1             16.5043362419       16.9149589883      -43.7338051327  TIP3      6175            0.0000000000
     27101      6239  TIP3      H2             16.6547354835       18.4251122164      -43.6144334161  TIP3      6175            0.0000000000
     27102      6240  TIP3      OH2            14.3305131373       20.7499397406      -42.9759406241  TIP3      6176            0.0000000000
     27103      6240  TIP3      H1             14.9037360146       20.5030387217      -43.7320284401  TIP3      6176            0.0000000000
     27104      6240  TIP3      H2             14.7864441243       21.5594130165      -42.7066432572  TIP3      6176            0.0000000000
     27105      6241  TIP3      OH2            14.6955563410       17.0504609670      -48.8642257523  TIP3      6177            0.0000000000
     27106      6241  TIP3      H1             13.7522279573       17.1799312327      -49.0324404255  TIP3      6177            0.0000000000
     27107      6241  TIP3      H2             15.0935435877       17.5250714779      -49.6134935232  TIP3      6177            0.0000000000
     27108      6242  TIP3      OH2            14.6411271404       15.6635296787      -40.5759051958  TIP3      6178            0.0000000000
     27109      6242  TIP3      H1             13.9771450412       15.4662753452      -39.8939870935  TIP3      6178            0.0000000000
     27110      6242  TIP3      H2             14.1806121140       16.3332813541      -41.1222204095  TIP3      6178            0.0000000000
     27111      6243  TIP3      OH2            17.2147253848       15.2135304828      -46.6866631634  TIP3      6179            0.0000000000
     27112      6243  TIP3      H1             16.4046345355       15.0699292539      -47.2049686784  TIP3      6179            0.0000000000
     27113      6243  TIP3      H2             17.6232024661       14.3308170149      -46.7587832192  TIP3      6179            0.0000000000
     27114      6244  TIP3      OH2            15.9325870631       14.9793395250      -51.0017934248  TIP3      6180            0.0000000000
     27115      6244  TIP3      H1             16.4547240665       15.6369403283      -51.4967336140  TIP3      6180            0.0000000000
     27116      6244  TIP3      H2             15.3926823160       15.5453916342      -50.4269559561  TIP3      6180            0.0000000000
     27117      6245  TIP3      OH2            21.4902241324       15.3197033833      -46.8059379396  TIP3      6181            0.0000000000
     27118      6245  TIP3      H1             22.4352524044       15.4531096177      -46.9907705948  TIP3      6181            0.0000000000
     27119      6245  TIP3      H2             21.5448608534       14.9725703425      -45.9125478138  TIP3      6181            0.0000000000
     27120      6246  TIP3      OH2            17.7703724594       16.9146546889      -52.4475204526  TIP3      6182            0.0000000000
     27121      6246  TIP3      H1             18.3198612923       16.3287007154      -52.9929630739  TIP3      6182            0.0000000000
     27122      6246  TIP3      H2             18.4418032409       17.2606985827      -51.8275512442  TIP3      6182            0.0000000000
     27123      6247  TIP3      OH2            22.4015729853       17.3263275392      -50.4083121816  TIP3      6183            0.0000000000
     27124      6247  TIP3      H1             22.7957282222       16.5897371174      -49.9148662591  TIP3      6183            0.0000000000
     27125      6247  TIP3      H2             22.7196859839       18.0894631527      -49.9134680894  TIP3      6183            0.0000000000
     27126      6248  TIP3      OH2            17.0520658269       15.7837217480      -37.2519130978  TIP3      6184            0.0000000000
     27127      6248  TIP3      H1             16.6622253427       14.9718119936      -36.8855324749  TIP3      6184            0.0000000000
     27128      6248  TIP3      H2             17.9512264208       15.7100190869      -36.8454387844  TIP3      6184            0.0000000000
     27129      6249  TIP3      OH2            19.0090173891       15.1037370433      -35.6308842332  TIP3      6185            0.0000000000
     27130      6249  TIP3      H1             19.9134071703       14.8060703014      -35.8282447479  TIP3      6185            0.0000000000
     27131      6249  TIP3      H2             18.6876222252       14.3131370255      -35.1558909015  TIP3      6185            0.0000000000
     27132      6250  TIP3      OH2           -11.4406352263      -13.3702372121      -27.9520406337  TIP3      6186            0.0000000000
     27133      6250  TIP3      H1            -11.4701763141      -12.3853385692      -27.9406903685  TIP3      6186            0.0000000000
     27134      6250  TIP3      H2            -12.1804469387      -13.5752504471      -28.5433490058  TIP3      6186            0.0000000000
     27135      6251  TIP3      OH2           -12.5248987932      -14.1091055906      -24.4043011911  TIP3      6187            0.0000000000
     27136      6251  TIP3      H1            -12.6767775610      -14.8045802273      -23.7777541224  TIP3      6187            0.0000000000
     27137      6251  TIP3      H2            -12.8974740214      -14.4954462020      -25.2163422847  TIP3      6187            0.0000000000
     27138      6252  TIP3      OH2           -20.2368568534      -14.5091447589      -22.9237397821  TIP3      6188            0.0000000000
     27139      6252  TIP3      H1            -20.1746682061      -15.0701116064      -22.1464367826  TIP3      6188            0.0000000000
     27140      6252  TIP3      H2            -19.5714117545      -13.8361704690      -22.7314264000  TIP3      6188            0.0000000000
     27141      6253  TIP3      OH2            -8.9508992473      -11.1402870106      -26.2193635601  TIP3      6189            0.0000000000
     27142      6253  TIP3      H1             -9.3432099804      -11.8647290900      -25.7307643910  TIP3      6189            0.0000000000
     27143      6253  TIP3      H2             -8.8262739617      -10.4787928995      -25.5202098423  TIP3      6189            0.0000000000
     27144      6254  TIP3      OH2           -19.3232646832       -9.9579107187      -24.3256975492  TIP3      6190            0.0000000000
     27145      6254  TIP3      H1            -19.6601449970      -10.7976130018      -24.7049979453  TIP3      6190            0.0000000000
     27146      6254  TIP3      H2            -18.3765743994      -10.1081087396      -24.4571945664  TIP3      6190            0.0000000000
     27147      6255  TIP3      OH2           -22.6126594270      -16.3677893440      -29.0238337295  TIP3      6191            0.0000000000
     27148      6255  TIP3      H1            -23.0796946320      -15.5260339021      -28.9592621224  TIP3      6191            0.0000000000
     27149      6255  TIP3      H2            -23.2757545339      -16.9657719445      -29.3533844680  TIP3      6191            0.0000000000
     27150      6256  TIP3      OH2           -21.8981976252      -14.1937292845      -26.7263003237  TIP3      6192            0.0000000000
     27151      6256  TIP3      H1            -21.6689114872      -15.0589977520      -26.3422920683  TIP3      6192            0.0000000000
     27152      6256  TIP3      H2            -21.2458016783      -14.0663801092      -27.4244782550  TIP3      6192            0.0000000000
     27153      6257  TIP3      OH2           -11.8275778476       -5.9486682730      -25.8982364523  TIP3      6193            0.0000000000
     27154      6257  TIP3      H1            -11.1750188177       -6.5988344548      -26.2647569244  TIP3      6193            0.0000000000
     27155      6257  TIP3      H2            -11.9951134989       -6.3404921086      -25.0470774283  TIP3      6193            0.0000000000
     27156      6258  TIP3      OH2           -17.9996861278      -19.0665423569      -26.4630082997  TIP3      6194            0.0000000000
     27157      6258  TIP3      H1            -17.8232956016      -18.2753678952      -27.0135901258  TIP3      6194            0.0000000000
     27158      6258  TIP3      H2            -18.2862071066      -19.7116815544      -27.1467136165  TIP3      6194            0.0000000000
     27159      6259  TIP3      OH2           -10.1183975402      -19.2270900937      -28.1474023328  TIP3      6195            0.0000000000
     27160      6259  TIP3      H1             -9.5740352271      -19.2393921162      -27.3393671063  TIP3      6195            0.0000000000
     27161      6259  TIP3      H2             -9.7030841151      -18.4640830673      -28.6044142250  TIP3      6195            0.0000000000
     27162      6260  TIP3      OH2           -21.1903841591      -16.7144396745      -25.7888763682  TIP3      6196            0.0000000000
     27163      6260  TIP3      H1            -20.5855160763      -17.3347441231      -25.3594702137  TIP3      6196            0.0000000000
     27164      6260  TIP3      H2            -21.1853135129      -17.0513656854      -26.7018547326  TIP3      6196            0.0000000000
     27165      6261  TIP3      OH2           -16.2240309132      -15.1832856103      -26.3898953157  TIP3      6197            0.0000000000
     27166      6261  TIP3      H1            -15.5175723258      -15.7593439751      -26.0454651917  TIP3      6197            0.0000000000
     27167      6261  TIP3      H2            -16.6864651226      -15.8182201629      -26.9773323922  TIP3      6197            0.0000000000
     27168      6262  TIP3      OH2           -11.7788045737      -10.7573765178      -28.8579177737  TIP3      6198            0.0000000000
     27169      6262  TIP3      H1            -11.9919876032      -11.0284918783      -29.7609970332  TIP3      6198            0.0000000000
     27170      6262  TIP3      H2            -12.0585903569       -9.8143080592      -28.8530290338  TIP3      6198            0.0000000000
     27171      6263  TIP3      OH2            -8.4940826083      -19.5067690431      -25.9239244643  TIP3      6199            0.0000000000
     27172      6263  TIP3      H1             -8.5982800046      -20.2671716946      -25.3330040739  TIP3      6199            0.0000000000
     27173      6263  TIP3      H2             -7.7308059418      -19.0449930240      -25.5055805496  TIP3      6199            0.0000000000
     27174      6264  TIP3      OH2           -19.4720008274      -18.3722907499      -24.3528682518  TIP3      6200            0.0000000000
     27175      6264  TIP3      H1            -18.8245139654      -17.6770668139      -24.1317776023  TIP3      6200            0.0000000000
     27176      6264  TIP3      H2            -19.0068092422      -18.8059261385      -25.1114694744  TIP3      6200            0.0000000000
     27177      6265  TIP3      OH2           -21.5582156773      -10.6931432807      -30.6719272233  TIP3      6201            0.0000000000
     27178      6265  TIP3      H1            -22.2683791346      -10.7877531000      -31.3378412711  TIP3      6201            0.0000000000
     27179      6265  TIP3      H2            -21.9414681884      -10.0690117366      -30.0450974891  TIP3      6201            0.0000000000
     27180      6266  TIP3      OH2            -8.3482410036       -9.3126343168      -23.9294595260  TIP3      6202            0.0000000000
     27181      6266  TIP3      H1             -9.2862504922       -9.2460414971      -23.7612935763  TIP3      6202            0.0000000000
     27182      6266  TIP3      H2             -8.0736775327       -8.3762811016      -24.0195754691  TIP3      6202            0.0000000000
     27183      6267  TIP3      OH2           -14.9092599681      -22.6415051107      -24.8582502203  TIP3      6203            0.0000000000
     27184      6267  TIP3      H1            -15.0172536739      -23.6000852897      -25.0266007588  TIP3      6203            0.0000000000
     27185      6267  TIP3      H2            -15.8311822072      -22.3745911864      -24.7364562302  TIP3      6203            0.0000000000
     27186      6268  TIP3      OH2           -10.1202639329       -7.4881824519      -27.1748268834  TIP3      6204            0.0000000000
     27187      6268  TIP3      H1             -9.7518021545       -8.2226408625      -27.7170134735  TIP3      6204            0.0000000000
     27188      6268  TIP3      H2             -9.6509014783       -6.7353273073      -27.6012624712  TIP3      6204            0.0000000000
     27189      6269  TIP3      OH2            -8.9276678401       -9.5782324738      -28.6902271239  TIP3      6205            0.0000000000
     27190      6269  TIP3      H1             -9.1954098370      -10.2689578703      -29.3195164977  TIP3      6205            0.0000000000
     27191      6269  TIP3      H2             -8.8579986146      -10.1053388579      -27.8767011461  TIP3      6205            0.0000000000
     27192      6270  TIP3      OH2            -7.5170377855      -11.0559085875      -20.3716244747  TIP3      6206            0.0000000000
     27193      6270  TIP3      H1             -7.1307141709      -11.6730824809      -20.9985096902  TIP3      6206            0.0000000000
     27194      6270  TIP3      H2             -7.0279759589      -10.2281817996      -20.4927955744  TIP3      6206            0.0000000000
     27195      6271  TIP3      OH2           -12.7989246679      -14.1316785266      -30.4628321514  TIP3      6207            0.0000000000
     27196      6271  TIP3      H1            -13.4830776219      -13.5344218613      -30.8181418323  TIP3      6207            0.0000000000
     27197      6271  TIP3      H2            -12.0773771970      -13.9999998036      -31.1057083875  TIP3      6207            0.0000000000
     27198      6272  TIP3      OH2           -12.7070896324      -15.4992855691      -33.4715328754  TIP3      6208            0.0000000000
     27199      6272  TIP3      H1            -12.0012724683      -15.4846701663      -32.8048985075  TIP3      6208            0.0000000000
     27200      6272  TIP3      H2            -12.4045522734      -16.2491788003      -33.9961911592  TIP3      6208            0.0000000000
     27201      6273  TIP3      OH2            -5.3308860618      -14.7250310104      -22.2062393396  TIP3      6209            0.0000000000
     27202      6273  TIP3      H1             -6.0125647796      -14.0317204448      -22.0720367863  TIP3      6209            0.0000000000
     27203      6273  TIP3      H2             -4.8980095849      -14.3697444808      -23.0009015131  TIP3      6209            0.0000000000
     27204      6274  TIP3      OH2            -9.3532436699      -13.9433579563      -29.5468729828  TIP3      6210            0.0000000000
     27205      6274  TIP3      H1            -10.0546461861      -13.7045942837      -28.9035669582  TIP3      6210            0.0000000000
     27206      6274  TIP3      H2             -8.7985169408      -14.5632948560      -29.0148864480  TIP3      6210            0.0000000000
     27207      6275  TIP3      OH2           -17.7046425912      -13.2085667522      -27.5913299601  TIP3      6211            0.0000000000
     27208      6275  TIP3      H1            -18.0302760330      -13.5881781305      -28.4436871260  TIP3      6211            0.0000000000
     27209      6275  TIP3      H2            -17.1047939503      -13.9253494931      -27.2806555565  TIP3      6211            0.0000000000
     27210      6276  TIP3      OH2           -16.4120898646       -9.8681748949      -24.8815723353  TIP3      6212            0.0000000000
     27211      6276  TIP3      H1            -16.4323838619      -10.2736983299      -25.7672180324  TIP3      6212            0.0000000000
     27212      6276  TIP3      H2            -15.5572821096      -10.1775673971      -24.5833314788  TIP3      6212            0.0000000000
     27213      6277  TIP3      OH2           -17.3933765680      -14.5052316598      -23.9541203926  TIP3      6213            0.0000000000
     27214      6277  TIP3      H1            -16.8964742536      -14.4384557772      -24.8008275422  TIP3      6213            0.0000000000
     27215      6277  TIP3      H2            -17.0172845785      -13.8137906208      -23.4170147394  TIP3      6213            0.0000000000
     27216      6278  TIP3      OH2           -10.4441449065      -14.6577418922      -31.8943569321  TIP3      6214            0.0000000000
     27217      6278  TIP3      H1             -9.8750317286      -14.5276296580      -31.0911846102  TIP3      6214            0.0000000000
     27218      6278  TIP3      H2             -9.9634328941      -14.1746286021      -32.6048851958  TIP3      6214            0.0000000000
     27219      6279  TIP3      OH2           -12.7537908203       -7.9981670349      -28.4024574414  TIP3      6215            0.0000000000
     27220      6279  TIP3      H1            -12.3240888869       -7.6621283580      -27.6099884692  TIP3      6215            0.0000000000
     27221      6279  TIP3      H2            -13.2982060599       -7.2475550086      -28.6801792875  TIP3      6215            0.0000000000
     27222      6280  TIP3      OH2            -6.7119329864      -22.9280688974      -31.8841213171  TIP3      6216            0.0000000000
     27223      6280  TIP3      H1             -7.6479061566      -22.7916163906      -31.7156107871  TIP3      6216            0.0000000000
     27224      6280  TIP3      H2             -6.4744062525      -22.1417780011      -32.4120717476  TIP3      6216            0.0000000000
     27225      6281  TIP3      OH2           -18.7312195201      -14.2204037421      -29.9713988927  TIP3      6217            0.0000000000
     27226      6281  TIP3      H1            -19.0414978364      -13.4462859011      -30.4880253000  TIP3      6217            0.0000000000
     27227      6281  TIP3      H2            -19.3620342477      -14.9024989734      -30.2204059568  TIP3      6217            0.0000000000
     27228      6282  TIP3      OH2            -5.6279881515       -8.6067944082      -33.6080676374  TIP3      6218            0.0000000000
     27229      6282  TIP3      H1             -5.4312400728       -7.6683189539      -33.4432121060  TIP3      6218            0.0000000000
     27230      6282  TIP3      H2             -4.7169020132       -8.9550113905      -33.5850703804  TIP3      6218            0.0000000000
     27231      6283  TIP3      OH2           -22.6746508289      -11.7978593693      -21.2211298937  TIP3      6219            0.0000000000
     27232      6283  TIP3      H1            -23.0383920980      -11.9007231971      -22.1001610832  TIP3      6219            0.0000000000
     27233      6283  TIP3      H2            -22.6324474698      -12.6810650722      -20.8498118997  TIP3      6219            0.0000000000
     27234      6284  TIP3      OH2           -22.8864955533       -9.0670164372      -24.3075020852  TIP3      6220            0.0000000000
     27235      6284  TIP3      H1            -21.9259125609       -9.1782023794      -24.3831575333  TIP3      6220            0.0000000000
     27236      6284  TIP3      H2            -22.9759276704       -8.2581614344      -23.7990143512  TIP3      6220            0.0000000000
     27237      6285  TIP3      OH2           -13.2628874218       -5.0772210423      -30.0074953874  TIP3      6221            0.0000000000
     27238      6285  TIP3      H1            -13.3896926240       -5.1301888256      -30.9720944377  TIP3      6221            0.0000000000
     27239      6285  TIP3      H2            -13.2732141355       -4.1176767851      -29.8306398197  TIP3      6221            0.0000000000
     27240      6286  TIP3      OH2           -19.6172952931       -6.2013497409      -28.1716292956  TIP3      6222            0.0000000000
     27241      6286  TIP3      H1            -19.4903089826       -6.6000698257      -27.2860946293  TIP3      6222            0.0000000000
     27242      6286  TIP3      H2            -20.4608865656       -6.6218829471      -28.4138858848  TIP3      6222            0.0000000000
     27243      6287  TIP3      OH2           -10.2109273134       -5.8394340092      -33.0117138565  TIP3      6223            0.0000000000
     27244      6287  TIP3      H1             -9.7354457524       -6.5898572734      -33.4401816534  TIP3      6223            0.0000000000
     27245      6287  TIP3      H2            -10.1734206570       -6.0879430407      -32.0657821939  TIP3      6223            0.0000000000
     27246      6288  TIP3      OH2           -10.5196349435       -5.9049395884      -30.2297536812  TIP3      6224            0.0000000000
     27247      6288  TIP3      H1            -11.4856252255       -5.8272882823      -30.0903005883  TIP3      6224            0.0000000000
     27248      6288  TIP3      H2            -10.3111888829       -6.6622212413      -29.6637762832  TIP3      6224            0.0000000000
     27249      6289  TIP3      OH2           -17.7374261794      -21.4995878863      -24.3773495650  TIP3      6225            0.0000000000
     27250      6289  TIP3      H1            -18.6033928940      -21.8407303857      -24.7255702337  TIP3      6225            0.0000000000
     27251      6289  TIP3      H2            -18.0459402243      -20.7848328273      -23.8273099404  TIP3      6225            0.0000000000
     27252      6290  TIP3      OH2           -13.7702796920      -21.5077940229      -21.0858919178  TIP3      6226            0.0000000000
     27253      6290  TIP3      H1            -12.9551567976      -21.9562800178      -20.7575984147  TIP3      6226            0.0000000000
     27254      6290  TIP3      H2            -14.3295069980      -22.2929225732      -20.9542883118  TIP3      6226            0.0000000000
     27255      6291  TIP3      OH2            -9.0548274170      -13.5675161669      -33.9987745202  TIP3      6227            0.0000000000
     27256      6291  TIP3      H1             -9.0710278546      -13.8141537625      -34.9477598065  TIP3      6227            0.0000000000
     27257      6291  TIP3      H2             -8.1524841109      -13.2101273491      -33.9703606977  TIP3      6227            0.0000000000
     27258      6292  TIP3      OH2           -13.3982636322      -19.7342336687      -33.5142611675  TIP3      6228            0.0000000000
     27259      6292  TIP3      H1            -13.7548291075      -19.8141819649      -32.6158133782  TIP3      6228            0.0000000000
     27260      6292  TIP3      H2            -13.7571600986      -20.5682794480      -33.8792422284  TIP3      6228            0.0000000000
     27261      6293  TIP3      OH2           -17.5772814398      -17.0252520503      -22.9628293381  TIP3      6229            0.0000000000
     27262      6293  TIP3      H1            -18.2907097567      -16.9983803360      -22.3250992437  TIP3      6229            0.0000000000
     27263      6293  TIP3      H2            -17.6313088175      -16.1384349553      -23.3891886486  TIP3      6229            0.0000000000
     27264      6294  TIP3      OH2           -17.6170479660      -16.9020173130      -28.1128363974  TIP3      6230            0.0000000000
     27265      6294  TIP3      H1            -18.5755195138      -17.1248239776      -28.2085863666  TIP3      6230            0.0000000000
     27266      6294  TIP3      H2            -17.2941966943      -17.2154551855      -28.9776538555  TIP3      6230            0.0000000000
     27267      6295  TIP3      OH2           -12.1312266055      -16.3884423705      -29.3099695966  TIP3      6231            0.0000000000
     27268      6295  TIP3      H1            -12.5026312900      -15.5601018325      -29.6933922199  TIP3      6231            0.0000000000
     27269      6295  TIP3      H2            -11.4123480053      -16.5597890379      -29.9476799584  TIP3      6231            0.0000000000
     27270      6296  TIP3      OH2           -11.0222547733      -16.9077051646      -26.5310575356  TIP3      6232            0.0000000000
     27271      6296  TIP3      H1            -11.3713057420      -16.3132577205      -27.2198385162  TIP3      6232            0.0000000000
     27272      6296  TIP3      H2            -11.0434832960      -17.7565485150      -26.9860878678  TIP3      6232            0.0000000000
     27273      6297  TIP3      OH2           -16.6540723720      -19.3882943918      -34.4202757831  TIP3      6233            0.0000000000
     27274      6297  TIP3      H1            -17.1316495902      -19.8138260926      -33.6723907957  TIP3      6233            0.0000000000
     27275      6297  TIP3      H2            -17.3388962810      -18.9577015793      -34.9485483788  TIP3      6233            0.0000000000
     27276      6298  TIP3      OH2           -22.0990597481      -19.5050451415      -27.5682873264  TIP3      6234            0.0000000000
     27277      6298  TIP3      H1            -22.3873948418      -19.7001183312      -26.6662092203  TIP3      6234            0.0000000000
     27278      6298  TIP3      H2            -22.7207769595      -20.0577118607      -28.0793975961  TIP3      6234            0.0000000000
     27279      6299  TIP3      OH2           -22.0308967199      -18.8254542312      -31.8178011047  TIP3      6235            0.0000000000
     27280      6299  TIP3      H1            -21.5013447124      -18.3573300458      -32.4946572750  TIP3      6235            0.0000000000
     27281      6299  TIP3      H2            -22.7539629329      -18.2271087317      -31.6825733731  TIP3      6235            0.0000000000
     27282      6300  TIP3      OH2           -15.0707491844      -19.2759729228      -27.1089447166  TIP3      6236            0.0000000000
     27283      6300  TIP3      H1            -16.0019031202      -19.3739746259      -26.8354658696  TIP3      6236            0.0000000000
     27284      6300  TIP3      H2            -14.6014665079      -19.5610940218      -26.3091795375  TIP3      6236            0.0000000000
     27285      6301  TIP3      OH2           -20.1440960918      -17.7016073378      -28.3449779954  TIP3      6237            0.0000000000
     27286      6301  TIP3      H1            -21.0988128443      -17.6619717310      -28.5597632548  TIP3      6237            0.0000000000
     27287      6301  TIP3      H2            -19.9734404917      -18.6401538167      -28.5676376375  TIP3      6237            0.0000000000
     27288      6302  TIP3      OH2           -16.6399890014      -17.7388023059      -30.5939359519  TIP3      6238            0.0000000000
     27289      6302  TIP3      H1            -15.6840199898      -17.6423961431      -30.4532112854  TIP3      6238            0.0000000000
     27290      6302  TIP3      H2            -16.8878015379      -17.0510062940      -31.2425871457  TIP3      6238            0.0000000000
     27291      6303  TIP3      OH2           -10.6801276059      -20.2314791808      -23.7743747223  TIP3      6239            0.0000000000
     27292      6303  TIP3      H1            -11.4195314121      -20.0352993784      -23.2007262653  TIP3      6239            0.0000000000
     27293      6303  TIP3      H2            -11.1828147991      -20.4055797727      -24.5880186328  TIP3      6239            0.0000000000
     27294      6304  TIP3      OH2           -17.9416735894      -16.5477998827      -33.0242013134  TIP3      6240            0.0000000000
     27295      6304  TIP3      H1            -18.4376796056      -16.9650234236      -33.7433952033  TIP3      6240            0.0000000000
     27296      6304  TIP3      H2            -17.1076233037      -16.3498599295      -33.4791220066  TIP3      6240            0.0000000000
     27297      6305  TIP3      OH2           -13.8290679619      -16.6380827296      -25.1565942438  TIP3      6241            0.0000000000
     27298      6305  TIP3      H1            -13.2391186144      -17.1333499271      -25.7417510454  TIP3      6241            0.0000000000
     27299      6305  TIP3      H2            -13.9797067278      -17.2640338063      -24.4392758940  TIP3      6241            0.0000000000
     27300      6306  TIP3      OH2           -18.8616002067      -20.4475931822      -28.8083392569  TIP3      6242            0.0000000000
     27301      6306  TIP3      H1            -19.1592136234      -21.3681818687      -28.7058101237  TIP3      6242            0.0000000000
     27302      6306  TIP3      H2            -18.0310012413      -20.5741835028      -29.2932426242  TIP3      6242            0.0000000000
     27303      6307  TIP3      OH2           -15.1570924585      -18.3097506201      -22.8232874995  TIP3      6243            0.0000000000
     27304      6307  TIP3      H1            -15.9710231453      -17.7653397830      -22.8015654953  TIP3      6243            0.0000000000
     27305      6307  TIP3      H2            -14.6648884394      -17.9531737164      -22.0870388864  TIP3      6243            0.0000000000
     27306      6308  TIP3      OH2           -14.5858524183      -12.0555564336      -31.0659880371  TIP3      6244            0.0000000000
     27307      6308  TIP3      H1            -15.3890920596      -12.5067778235      -31.4144842660  TIP3      6244            0.0000000000
     27308      6308  TIP3      H2            -14.8377437604      -11.8910921664      -30.1329276647  TIP3      6244            0.0000000000
     27309      6309  TIP3      OH2            -7.4509926238      -12.9239781929      -22.3741618609  TIP3      6245            0.0000000000
     27310      6309  TIP3      H1             -6.8339623691      -12.3958980645      -22.9277092496  TIP3      6245            0.0000000000
     27311      6309  TIP3      H2             -8.2808665780      -12.8158609137      -22.8756688800  TIP3      6245            0.0000000000
     27312      6310  TIP3      OH2           -10.7614741774      -19.2158590771      -32.9323166201  TIP3      6246            0.0000000000
     27313      6310  TIP3      H1            -11.7163875334      -19.0622366934      -33.0544011723  TIP3      6246            0.0000000000
     27314      6310  TIP3      H2            -10.4027178865      -18.3875222417      -32.5501369078  TIP3      6246            0.0000000000
     27315      6311  TIP3      OH2           -10.0094327228      -17.2925139489      -31.3123978417  TIP3      6247            0.0000000000
     27316      6311  TIP3      H1             -9.1350701547      -17.4066651073      -30.8802382718  TIP3      6247            0.0000000000
     27317      6311  TIP3      H2             -9.8721391620      -16.4675879676      -31.8113285875  TIP3      6247            0.0000000000
     27318      6312  TIP3      OH2           -19.3545382487      -12.6214741209      -25.1584130941  TIP3      6248            0.0000000000
     27319      6312  TIP3      H1            -18.8891597985      -12.6988942742      -26.0148281372  TIP3      6248            0.0000000000
     27320      6312  TIP3      H2            -19.4245849494      -13.5537832426      -24.9100340074  TIP3      6248            0.0000000000
     27321      6313  TIP3      OH2           -12.5103210807      -10.5821092453      -32.0528921174  TIP3      6249            0.0000000000
     27322      6313  TIP3      H1            -12.8534132816       -9.7292750963      -31.7068314050  TIP3      6249            0.0000000000
     27323      6313  TIP3      H2            -13.2337039682      -11.2007007263      -31.8160220798  TIP3      6249            0.0000000000
     27324      6314  TIP3      OH2            -4.7407411882      -17.2036871865      -32.3502547788  TIP3      6250            0.0000000000
     27325      6314  TIP3      H1             -5.6759243371      -17.4668524727      -32.3480317863  TIP3      6250            0.0000000000
     27326      6314  TIP3      H2             -4.9199992595      -16.3739668141      -31.8387478166  TIP3      6250            0.0000000000
     27327      6315  TIP3      OH2            -6.8911590850       -8.3453423504      -31.1397570156  TIP3      6251            0.0000000000
     27328      6315  TIP3      H1             -7.1978243569       -9.1794809296      -30.7673696935  TIP3      6251            0.0000000000
     27329      6315  TIP3      H2             -6.5009033743       -8.5897519755      -31.9959121314  TIP3      6251            0.0000000000
     27330      6316  TIP3      OH2            -9.6736082974      -13.5181408103      -23.9227507604  TIP3      6252            0.0000000000
     27331      6316  TIP3      H1            -10.5794592351      -13.6825009448      -24.2387314372  TIP3      6252            0.0000000000
     27332      6316  TIP3      H2             -9.1814485285      -14.1928190657      -24.4476003026  TIP3      6252            0.0000000000
     27333      6317  TIP3      OH2           -17.1013702325       -9.1514172219      -27.8082803563  TIP3      6253            0.0000000000
     27334      6317  TIP3      H1            -16.6061496638       -8.3674784328      -28.1058692999  TIP3      6253            0.0000000000
     27335      6317  TIP3      H2            -17.9594086304       -8.9773691908      -28.2285962987  TIP3      6253            0.0000000000
     27336      6318  TIP3      OH2           -21.5064021483      -14.3233334191      -33.3229871225  TIP3      6254            0.0000000000
     27337      6318  TIP3      H1            -20.7922405474      -13.7406301888      -32.9741479071  TIP3      6254            0.0000000000
     27338      6318  TIP3      H2            -22.2778083380      -13.8555444241      -32.9828377459  TIP3      6254            0.0000000000
     27339      6319  TIP3      OH2           -15.7171980708      -11.5039805245      -28.4345343859  TIP3      6255            0.0000000000
     27340      6319  TIP3      H1            -16.0419712832      -10.5969887498      -28.2999900453  TIP3      6255            0.0000000000
     27341      6319  TIP3      H2            -16.4035076364      -12.0303595381      -27.9769109001  TIP3      6255            0.0000000000
     27342      6320  TIP3      OH2           -17.0128299832       -6.5503852209      -28.8746661435  TIP3      6256            0.0000000000
     27343      6320  TIP3      H1            -17.9763213677       -6.4118314473      -28.7219298877  TIP3      6256            0.0000000000
     27344      6320  TIP3      H2            -16.6386699123       -5.7099074469      -28.5473488677  TIP3      6256            0.0000000000
     27345      6321  TIP3      OH2           -11.6509448494      -11.2557222248      -22.3353021503  TIP3      6257            0.0000000000
     27346      6321  TIP3      H1            -11.9908436421      -11.5579238579      -21.4950807717  TIP3      6257            0.0000000000
     27347      6321  TIP3      H2            -11.0190859665      -11.9515087997      -22.5819100324  TIP3      6257            0.0000000000
     27348      6322  TIP3      OH2            -9.3486892594      -10.2190618070      -33.2707922610  TIP3      6258            0.0000000000
     27349      6322  TIP3      H1             -9.0599987324      -10.7159758671      -32.4776545430  TIP3      6258            0.0000000000
     27350      6322  TIP3      H2            -10.2952359093      -10.4355343098      -33.2163833793  TIP3      6258            0.0000000000
     27351      6323  TIP3      OH2            -4.9109819253       -5.9096995664      -33.0070536666  TIP3      6259            0.0000000000
     27352      6323  TIP3      H1             -4.2380482498       -5.2359920867      -33.2314218939  TIP3      6259            0.0000000000
     27353      6323  TIP3      H2             -5.6293503381       -5.3059685706      -32.7157022151  TIP3      6259            0.0000000000
     27354      6324  TIP3      OH2            -8.6052870096      -11.5806784185      -30.9906592692  TIP3      6260            0.0000000000
     27355      6324  TIP3      H1             -8.8368488210      -12.4139619306      -30.5204941721  TIP3      6260            0.0000000000
     27356      6324  TIP3      H2             -7.6366500427      -11.6280600421      -30.8901778738  TIP3      6260            0.0000000000
     27357      6325  TIP3      OH2           -21.2049067582       -7.7413234529      -22.0074842935  TIP3      6261            0.0000000000
     27358      6325  TIP3      H1            -20.9100567235       -8.6686238419      -22.0246473612  TIP3      6261            0.0000000000
     27359      6325  TIP3      H2            -20.8598601018       -7.4156766140      -21.1600686209  TIP3      6261            0.0000000000
     27360      6326  TIP3      OH2           -15.2190811266       -9.1751021608      -34.7479699161  TIP3      6262            0.0000000000
     27361      6326  TIP3      H1            -15.1586205220       -9.9287764099      -35.3584995035  TIP3      6262            0.0000000000
     27362      6326  TIP3      H2            -15.7199010963       -9.6017561935      -34.0198741374  TIP3      6262            0.0000000000
     27363      6327  TIP3      OH2           -16.5238550623       -9.6677399357      -32.2866494579  TIP3      6263            0.0000000000
     27364      6327  TIP3      H1            -16.1546300399      -10.1805342672      -31.5553831596  TIP3      6263            0.0000000000
     27365      6327  TIP3      H2            -16.4215726390       -8.7424530745      -31.9717230122  TIP3      6263            0.0000000000
     27366      6328  TIP3      OH2           -19.9160442680      -12.4282352954      -31.8608631239  TIP3      6264            0.0000000000
     27367      6328  TIP3      H1            -20.6435768285      -11.9908963892      -31.3565839183  TIP3      6264            0.0000000000
     27368      6328  TIP3      H2            -19.4015516643      -11.6418213930      -32.1254538679  TIP3      6264            0.0000000000
     27369      6329  TIP3      OH2           -11.1834123519      -20.2401344461      -30.4198244905  TIP3      6265            0.0000000000
     27370      6329  TIP3      H1            -11.1708819883      -19.7270030890      -31.2541331675  TIP3      6265            0.0000000000
     27371      6329  TIP3      H2            -10.7824858494      -19.5963660318      -29.8058791747  TIP3      6265            0.0000000000
     27372      6330  TIP3      OH2           -13.6718054999       -8.0070585275      -31.6328507060  TIP3      6266            0.0000000000
     27373      6330  TIP3      H1            -14.4927886456       -7.4820162401      -31.5468380166  TIP3      6266            0.0000000000
     27374      6330  TIP3      H2            -13.1261434817       -7.4350122064      -32.1903292166  TIP3      6266            0.0000000000
     27375      6331  TIP3      OH2           -14.1028675206      -18.4480372892      -29.6004065578  TIP3      6267            0.0000000000
     27376      6331  TIP3      H1            -13.3540194851      -17.8227024201      -29.5371753629  TIP3      6267            0.0000000000
     27377      6331  TIP3      H2            -14.3984991392      -18.5340862037      -28.6689992005  TIP3      6267            0.0000000000
     27378      6332  TIP3      OH2           -13.2167658622      -21.3272347938      -28.5916857005  TIP3      6268            0.0000000000
     27379      6332  TIP3      H1            -13.6389586032      -20.6375550811      -28.0505660995  TIP3      6268            0.0000000000
     27380      6332  TIP3      H2            -12.6514685567      -20.7972371598      -29.1882957281  TIP3      6268            0.0000000000
     27381      6333  TIP3      OH2           -16.2603446280       -6.9890606847      -31.5945377071  TIP3      6269            0.0000000000
     27382      6333  TIP3      H1            -16.1830204890       -6.1815641293      -32.1589193304  TIP3      6269            0.0000000000
     27383      6333  TIP3      H2            -16.5503472559       -6.6075831615      -30.7347395910  TIP3      6269            0.0000000000
     27384      6334  TIP3      OH2           -17.6588832148      -20.2146367667      -32.0566873692  TIP3      6270            0.0000000000
     27385      6334  TIP3      H1            -17.6841931807      -19.3555069026      -31.5985516569  TIP3      6270            0.0000000000
     27386      6334  TIP3      H2            -16.7678248505      -20.5134741846      -31.7743625966  TIP3      6270            0.0000000000
     27387      6335  TIP3      OH2            -8.8767800930      -15.6700000703      -25.4288187195  TIP3      6271            0.0000000000
     27388      6335  TIP3      H1             -9.6052980178      -16.1694531738      -25.8649144030  TIP3      6271            0.0000000000
     27389      6335  TIP3      H2             -8.2558197010      -16.3687544251      -25.1423892324  TIP3      6271            0.0000000000
     27390      6336  TIP3      OH2           -19.3691287303       -9.7973110573      -32.9870509861  TIP3      6272            0.0000000000
     27391      6336  TIP3      H1            -18.6837253796       -9.2043435527      -32.6513064738  TIP3      6272            0.0000000000
     27392      6336  TIP3      H2            -18.8727939934      -10.3014006176      -33.6552400033  TIP3      6272            0.0000000000
     27393      6337  TIP3      OH2           -21.0984977777      -17.1077161039      -33.8592496531  TIP3      6273            0.0000000000
     27394      6337  TIP3      H1            -21.0954702919      -16.1703404651      -33.6029416520  TIP3      6273            0.0000000000
     27395      6337  TIP3      H2            -21.9775351899      -17.2921361691      -34.1932055393  TIP3      6273            0.0000000000
     27396      6338  TIP3      OH2            -7.8029563384       -6.4703874814      -23.9089756598  TIP3      6274            0.0000000000
     27397      6338  TIP3      H1             -7.8023681252       -5.7878697411      -24.6116550693  TIP3      6274            0.0000000000
     27398      6338  TIP3      H2             -6.8446269454       -6.4446783504      -23.6911397291  TIP3      6274            0.0000000000
     27399      6339  TIP3      OH2           -20.1644565620      -22.2760737200      -25.1361768224  TIP3      6275            0.0000000000
     27400      6339  TIP3      H1            -20.4017513972      -22.2741649805      -26.0953634201  TIP3      6275            0.0000000000
     27401      6339  TIP3      H2            -20.5938521697      -23.1164245531      -24.8772804977  TIP3      6275            0.0000000000
     27402      6340  TIP3      OH2           -21.2788814494       -8.3622315370      -28.8426901973  TIP3      6276            0.0000000000
     27403      6340  TIP3      H1            -22.1397837667       -7.9626958357      -28.9971599121  TIP3      6276            0.0000000000
     27404      6340  TIP3      H2            -20.8341901000       -8.0646202389      -29.6450762789  TIP3      6276            0.0000000000
     27405      6341  TIP3      OH2           -13.2192958876       -7.3323440577      -34.6291276916  TIP3      6277            0.0000000000
     27406      6341  TIP3      H1            -13.9343524293       -7.9890676716      -34.4603653065  TIP3      6277            0.0000000000
     27407      6341  TIP3      H2            -12.5175724252       -7.9449243165      -34.8948584219  TIP3      6277            0.0000000000
     27408      6342  TIP3      OH2            -8.6794133018       -7.6031562042      -34.4663175477  TIP3      6278            0.0000000000
     27409      6342  TIP3      H1             -8.4020544943       -8.3810097927      -33.9496137773  TIP3      6278            0.0000000000
     27410      6342  TIP3      H2             -7.9125890496       -7.4243921813      -35.0267792569  TIP3      6278            0.0000000000
     27411      6343  TIP3      OH2           -17.8082798866      -11.6619700626      -34.6860237457  TIP3      6279            0.0000000000
     27412      6343  TIP3      H1            -17.6725118872      -12.3985174240      -34.0719308788  TIP3      6279            0.0000000000
     27413      6343  TIP3      H2            -17.0315449917      -11.7794033132      -35.2679662395  TIP3      6279            0.0000000000
     27414      6344  TIP3      OH2           -12.3667565373      -10.5365388557      -34.8724512950  TIP3      6280            0.0000000000
     27415      6344  TIP3      H1            -12.6354552384      -10.4835085933      -33.9399051864  TIP3      6280            0.0000000000
     27416      6344  TIP3      H2            -12.5385816985      -11.4910616229      -35.0390875298  TIP3      6280            0.0000000000
     27417      6345  TIP3      OH2           -16.5825179680      -13.6296622778      -32.1780826803  TIP3      6281            0.0000000000
     27418      6345  TIP3      H1            -17.1334078603      -14.1835427928      -31.6004092925  TIP3      6281            0.0000000000
     27419      6345  TIP3      H2            -16.2672289485      -14.2861223410      -32.8375495434  TIP3      6281            0.0000000000
     27420      6346  TIP3      OH2           -15.5538354676      -15.3922483359      -34.0215816255  TIP3      6282            0.0000000000
     27421      6346  TIP3      H1            -15.6817861736      -15.4635644954      -34.9847790100  TIP3      6282            0.0000000000
     27422      6346  TIP3      H2            -14.5742494307      -15.3820280295      -33.9370437259  TIP3      6282            0.0000000000
     27423      6347  TIP3      OH2            -6.2782323685      -13.1047539412      -34.6228804546  TIP3      6283            0.0000000000
     27424      6347  TIP3      H1             -6.3783810055      -13.4731088601      -35.5135890700  TIP3      6283            0.0000000000
     27425      6347  TIP3      H2             -6.1180974578      -12.1478428881      -34.7771259083  TIP3      6283            0.0000000000
     27426      6348  TIP3      OH2           -14.9874875886      -14.7165722058      -21.1958479231  TIP3      6284            0.0000000000
     27427      6348  TIP3      H1            -14.1742390336      -14.7645002964      -21.6891162351  TIP3      6284            0.0000000000
     27428      6348  TIP3      H2            -15.3006821682      -13.8308620576      -21.3496596284  TIP3      6284            0.0000000000
     27429      6349  TIP3      OH2           -16.0521541718      -22.6686002242      -20.6990843123  TIP3      6285            0.0000000000
     27430      6349  TIP3      H1            -15.8289256328      -21.7668255727      -20.9600461444  TIP3      6285            0.0000000000
     27431      6349  TIP3      H2            -16.4535506354      -23.0425469655      -21.4812136974  TIP3      6285            0.0000000000
     27432      6350  TIP3      OH2           -15.7107010527       -4.7026834022      -32.9109392274  TIP3      6286            0.0000000000
     27433      6350  TIP3      H1            -14.7409036907       -4.6570395810      -32.8532444475  TIP3      6286            0.0000000000
     27434      6350  TIP3      H2            -15.8363998293       -4.1450476262      -33.6901780371  TIP3      6286            0.0000000000
     27435      6351  TIP3      OH2           -22.0470737885      -10.0633577673      -33.5143565162  TIP3      6287            0.0000000000
     27436      6351  TIP3      H1            -21.0998270736      -10.0392164162      -33.2591267331  TIP3      6287            0.0000000000
     27437      6351  TIP3      H2            -22.0608251374      -10.7568282898      -34.2001513850  TIP3      6287            0.0000000000
     27438      6352  TIP3      OH2            23.5899828966       -5.0019451242      -28.7273156832  TIP3      6288            0.0000000000
     27439      6352  TIP3      H1             22.6836106928       -5.2193727477      -28.9503647146  TIP3      6288            0.0000000000
     27440      6352  TIP3      H2             23.7241428961       -5.4455693108      -27.8617954554  TIP3      6288            0.0000000000
     27441      6353  TIP3      OH2           -22.5797414849       -6.5715534743      -26.6271524141  TIP3      6289            0.0000000000
     27442      6353  TIP3      H1            -22.8057292973       -7.4898692539      -26.4415337263  TIP3      6289            0.0000000000
     27443      6353  TIP3      H2            -22.2193047161       -6.2533466352      -25.7716722643  TIP3      6289            0.0000000000
     27444      6354  TIP3      OH2            -5.0230319071       -5.8189502842      -23.6865147281  TIP3      6290            0.0000000000
     27445      6354  TIP3      H1             -4.9533563942       -5.6851013241      -22.7241359413  TIP3      6290            0.0000000000
     27446      6354  TIP3      H2             -4.3018896079       -5.2653722891      -24.0023299528  TIP3      6290            0.0000000000
     27447      6355  TIP3      OH2            -5.2910276282       -6.2727096393      -20.8300595363  TIP3      6291            0.0000000000
     27448      6355  TIP3      H1             -5.8733856038       -7.0035746434      -21.1200641310  TIP3      6291            0.0000000000
     27449      6355  TIP3      H2             -4.9095991881       -6.6774231965      -20.0415939481  TIP3      6291            0.0000000000
     27450      6356  TIP3      OH2            -5.6775425762      -12.1478240260      -30.6794868412  TIP3      6292            0.0000000000
     27451      6356  TIP3      H1             -4.7943244395      -11.8073172282      -30.4693261012  TIP3      6292            0.0000000000
     27452      6356  TIP3      H2             -5.7236575485      -12.8797026865      -30.0220869215  TIP3      6292            0.0000000000
     27453      6357  TIP3      OH2            -5.3782699002      -13.7962084964      -28.5373148951  TIP3      6293            0.0000000000
     27454      6357  TIP3      H1             -6.0238972247      -14.5341168267      -28.4756569160  TIP3      6293            0.0000000000
     27455      6357  TIP3      H2             -4.6892897688      -14.0247913785      -27.8969355692  TIP3      6293            0.0000000000
     27456      6358  TIP3      OH2            -5.6660650227      -11.4480473166      -23.8505823040  TIP3      6294            0.0000000000
     27457      6358  TIP3      H1             -4.8149613675      -11.8546724074      -24.0740509202  TIP3      6294            0.0000000000
     27458      6358  TIP3      H2             -5.4447548973      -10.5017458366      -23.9866252467  TIP3      6294            0.0000000000
     27459      6359  TIP3      OH2            -6.9532901447       -8.4892154192      -21.5680708761  TIP3      6295            0.0000000000
     27460      6359  TIP3      H1             -7.5809654695       -8.2919007488      -20.8521731385  TIP3      6295            0.0000000000
     27461      6359  TIP3      H2             -7.4780053395       -8.9801143482      -22.2224344225  TIP3      6295            0.0000000000
     27462      6360  TIP3      OH2            -4.8510334877      -14.1093271880      -32.4839853605  TIP3      6296            0.0000000000
     27463      6360  TIP3      H1             -5.6088164508      -13.9769446750      -33.0872529673  TIP3      6296            0.0000000000
     27464      6360  TIP3      H2             -5.1779279856      -13.6342601261      -31.7010964407  TIP3      6296            0.0000000000
     27465      6361  TIP3      OH2            -6.9036594965      -17.0347602650      -33.9555370903  TIP3      6297            0.0000000000
     27466      6361  TIP3      H1             -6.5130619415      -16.3981860334      -34.5624253946  TIP3      6297            0.0000000000
     27467      6361  TIP3      H2             -6.8142415454      -17.8890201531      -34.4083840571  TIP3      6297            0.0000000000
     27468      6362  TIP3      OH2            -7.8560482257      -15.4566844970      -27.8983576289  TIP3      6298            0.0000000000
     27469      6362  TIP3      H1             -7.6080797752      -16.3512214133      -28.2111126224  TIP3      6298            0.0000000000
     27470      6362  TIP3      H2             -7.8903491650      -15.5176655836      -26.9412844755  TIP3      6298            0.0000000000
     27471      6363  TIP3      OH2           -22.5174052699      -13.5224633679      -24.0800306730  TIP3      6299            0.0000000000
     27472      6363  TIP3      H1            -22.3891836899      -13.6069983590      -25.0564997869  TIP3      6299            0.0000000000
     27473      6363  TIP3      H2            -21.6108106861      -13.7148144395      -23.7757914097  TIP3      6299            0.0000000000
     27474      6364  TIP3      OH2            -7.3432072440      -19.5962526674      -34.7641262893  TIP3      6300            0.0000000000
     27475      6364  TIP3      H1             -6.7865346890      -19.9889864736      -34.0696167519  TIP3      6300            0.0000000000
     27476      6364  TIP3      H2             -8.2260606510      -19.9735863049      -34.6015483662  TIP3      6300            0.0000000000
     27477      6365  TIP3      OH2            -8.0342978395      -18.2506714897      -29.7269883497  TIP3      6301            0.0000000000
     27478      6365  TIP3      H1             -7.4837496105      -19.0454757318      -29.6250564449  TIP3      6301            0.0000000000
     27479      6365  TIP3      H2             -7.3228802205      -17.6007486355      -29.9758201940  TIP3      6301            0.0000000000
     27480      6366  TIP3      OH2            -7.1887702129      -17.5568518843      -24.3401526305  TIP3      6302            0.0000000000
     27481      6366  TIP3      H1             -6.2311462837      -17.3185297706      -24.3463982877  TIP3      6302            0.0000000000
     27482      6366  TIP3      H2             -7.3733607015      -17.3793505771      -23.4134316112  TIP3      6302            0.0000000000
     27483      6367  TIP3      OH2            -7.1353697391      -20.7770103993      -29.6741031058  TIP3      6303            0.0000000000
     27484      6367  TIP3      H1             -6.7258072074      -21.2823607416      -28.9445693024  TIP3      6303            0.0000000000
     27485      6367  TIP3      H2             -7.6984401661      -21.4236266549      -30.1571801259  TIP3      6303            0.0000000000
     27486      6368  TIP3      OH2           -21.7796447923      -19.9281664294      -24.9414942248  TIP3      6304            0.0000000000
     27487      6368  TIP3      H1            -21.2931572618      -20.7669675007      -24.8384914120  TIP3      6304            0.0000000000
     27488      6368  TIP3      H2            -21.1013880531      -19.2692368321      -24.7407450675  TIP3      6304            0.0000000000
     27489      6369  TIP3      OH2           -23.4205233239      -16.6776580723      -24.2897703156  TIP3      6305            0.0000000000
     27490      6369  TIP3      H1            -22.8049490194      -17.1709045097      -24.8560623334  TIP3      6305            0.0000000000
     27491      6369  TIP3      H2            -22.8346458764      -16.0205284843      -23.9176318626  TIP3      6305            0.0000000000
     27492      6370  TIP3      OH2            -5.2897731885      -20.7527977528      -33.0469381818  TIP3      6306            0.0000000000
     27493      6370  TIP3      H1             -4.9557785676      -21.4088581318      -33.7074370415  TIP3      6306            0.0000000000
     27494      6370  TIP3      H2             -4.6573517591      -20.0213182192      -33.1186520068  TIP3      6306            0.0000000000
     27495      6371  TIP3      OH2           -22.7513061951      -20.8195707765      -29.6492195837  TIP3      6307            0.0000000000
     27496      6371  TIP3      H1            -23.6735027210      -20.5783957726      -29.7087824000  TIP3      6307            0.0000000000
     27497      6371  TIP3      H2            -22.3510319941      -20.3763843002      -30.4369524728  TIP3      6307            0.0000000000
     27498      6372  TIP3      OH2            -8.2807297092       -5.7445154268      -28.0652512906  TIP3      6308            0.0000000000
     27499      6372  TIP3      H1             -7.5928179079       -6.0346787992      -28.6915171453  TIP3      6308            0.0000000000
     27500      6372  TIP3      H2             -7.7732922146       -5.2394702760      -27.4150209753  TIP3      6308            0.0000000000
     27501      6373  TIP3      OH2            23.8335602057      -21.6851501308      -21.7837686036  TIP3      6309            0.0000000000
     27502      6373  TIP3      H1             23.3689707284      -21.8712524414      -20.9465816138  TIP3      6309            0.0000000000
     27503      6373  TIP3      H2             23.2078747418      -21.1259693612      -22.2643718506  TIP3      6309            0.0000000000
     27504      6374  TIP3      OH2           -20.5487884867       -4.6586045169      -21.3253708085  TIP3      6310            0.0000000000
     27505      6374  TIP3      H1            -21.1980415587       -4.0316486819      -21.7035235177  TIP3      6310            0.0000000000
     27506      6374  TIP3      H2            -20.8368416509       -4.7161830111      -20.4045495019  TIP3      6310            0.0000000000
     27507      6375  TIP3      OH2           -18.0062097987       -4.9862273552      -22.2289278310  TIP3      6311            0.0000000000
     27508      6375  TIP3      H1            -18.8828877567       -4.8709993311      -21.7982782264  TIP3      6311            0.0000000000
     27509      6375  TIP3      H2            -18.0881701827       -4.4318997379      -23.0230875211  TIP3      6311            0.0000000000
     27510      6376  TIP3      OH2            -8.5638444504       -4.6468135352      -21.8366293742  TIP3      6312            0.0000000000
     27511      6376  TIP3      H1             -8.4924782998       -3.7242118582      -22.0748075254  TIP3      6312            0.0000000000
     27512      6376  TIP3      H2             -8.1970113592       -5.0764419659      -22.6326482324  TIP3      6312            0.0000000000
     27513      6377  TIP3      OH2           -21.1158933301       -5.9864108559      -24.3882134411  TIP3      6313            0.0000000000
     27514      6377  TIP3      H1            -21.1054810472       -6.3605023181      -23.4903825793  TIP3      6313            0.0000000000
     27515      6377  TIP3      H2            -20.2605920356       -6.3107786661      -24.7459375692  TIP3      6313            0.0000000000
     27516      6378  TIP3      OH2           -18.9964514790       -7.2775227367      -25.6730810106  TIP3      6314            0.0000000000
     27517      6378  TIP3      H1            -19.0918443960       -8.2185052297      -25.4582533430  TIP3      6314            0.0000000000
     27518      6378  TIP3      H2            -18.1453064735       -7.0779557069      -25.2371752823  TIP3      6314            0.0000000000
     27519      6379  TIP3      OH2           -16.3229399187       -6.7579847538      -24.8364416966  TIP3      6315            0.0000000000
     27520      6379  TIP3      H1            -16.2260767957       -7.6939324716      -25.0720109189  TIP3      6315            0.0000000000
     27521      6379  TIP3      H2            -16.4065831276       -6.7699453537      -23.8780920153  TIP3      6315            0.0000000000
     27522      6380  TIP3      OH2           -12.9367153551      -20.9925413583      -25.5662677961  TIP3      6316            0.0000000000
     27523      6380  TIP3      H1            -13.6123379528      -21.6695058877      -25.3423075949  TIP3      6316            0.0000000000
     27524      6380  TIP3      H2            -12.4238154717      -21.5251501231      -26.1852832584  TIP3      6316            0.0000000000
     27525      6381  TIP3      OH2            -7.5534997349      -22.5720756836      -25.2385273590  TIP3      6317            0.0000000000
     27526      6381  TIP3      H1             -6.9436320593      -22.6205282056      -25.9990378736  TIP3      6317            0.0000000000
     27527      6381  TIP3      H2             -8.3823972561      -23.0273160517      -25.5026061830  TIP3      6317            0.0000000000
     27528      6382  TIP3      OH2            -5.9794187803      -21.8105063799      -27.4198471383  TIP3      6318            0.0000000000
     27529      6382  TIP3      H1             -5.3119173011      -22.4295076933      -27.7572597347  TIP3      6318            0.0000000000
     27530      6382  TIP3      H2             -5.4465964102      -20.9830961539      -27.2911079543  TIP3      6318            0.0000000000
     27531      6383  TIP3      OH2           -20.4712950968      -22.5833040061      -27.8244025761  TIP3      6319            0.0000000000
     27532      6383  TIP3      H1            -21.2407675389      -22.6072325367      -28.4129718805  TIP3      6319            0.0000000000
     27533      6383  TIP3      H2            -20.0779941884      -23.4521594608      -27.9323148865  TIP3      6319            0.0000000000
     27534      6384  TIP3      OH2           -21.7155929479      -22.3395484888      -31.5395781860  TIP3      6320            0.0000000000
     27535      6384  TIP3      H1            -21.3921107982      -21.8996998058      -32.3364685990  TIP3      6320            0.0000000000
     27536      6384  TIP3      H2            -22.6007100340      -21.9899840997      -31.5083404724  TIP3      6320            0.0000000000
     27537      6385  TIP3      OH2           -16.0716108232      -22.3561214226      -28.0913008567  TIP3      6321            0.0000000000
     27538      6385  TIP3      H1            -15.1283839240      -22.1472214971      -28.1218156537  TIP3      6321            0.0000000000
     27539      6385  TIP3      H2            -16.1081188612      -22.9423212656      -27.3177471386  TIP3      6321            0.0000000000
     27540      6386  TIP3      OH2           -10.4534529983      -22.6115964486      -26.4341259356  TIP3      6322            0.0000000000
     27541      6386  TIP3      H1            -10.6091049362      -22.5105649485      -27.3802715403  TIP3      6322            0.0000000000
     27542      6386  TIP3      H2            -10.7490526691      -23.5116516496      -26.2494841066  TIP3      6322            0.0000000000
     27543      6387  TIP3      OH2            -9.0190516995      -22.3561227081      -30.5440550810  TIP3      6323            0.0000000000
     27544      6387  TIP3      H1             -9.7956204631      -21.8592499345      -30.8951391933  TIP3      6323            0.0000000000
     27545      6387  TIP3      H2             -9.3451098540      -23.2166901948      -30.2699669116  TIP3      6323            0.0000000000
     27546      6388  TIP3      OH2           -21.8225774693       -6.7270470213      -31.0508799948  TIP3      6324            0.0000000000
     27547      6388  TIP3      H1            -22.5077174501       -6.7954625097      -31.7333202779  TIP3      6324            0.0000000000
     27548      6388  TIP3      H2            -21.7952715400       -5.7623801925      -30.9597750151  TIP3      6324            0.0000000000
     27549      6389  TIP3      OH2           -19.9416740809      -20.8011781368      -33.6214570956  TIP3      6325            0.0000000000
     27550      6389  TIP3      H1            -19.3555324537      -21.3671729567      -34.1445341264  TIP3      6325            0.0000000000
     27551      6389  TIP3      H2            -19.2857119805      -20.4775797843      -32.9686720171  TIP3      6325            0.0000000000
     27552      6390  TIP3      OH2           -15.0414129465      -20.5342604447      -31.1614956073  TIP3      6326            0.0000000000
     27553      6390  TIP3      H1            -14.6549209951      -21.0826358917      -30.4590469886  TIP3      6326            0.0000000000
     27554      6390  TIP3      H2            -14.8609943856      -19.6583042257      -30.7679138348  TIP3      6326            0.0000000000
     27555      6391  TIP3      OH2           -12.9735642227       -5.4373018065      -32.7592181258  TIP3      6327            0.0000000000
     27556      6391  TIP3      H1            -12.0387363279       -5.2795692215      -32.9741165458  TIP3      6327            0.0000000000
     27557      6391  TIP3      H2            -13.1986717758       -6.0025047051      -33.5277770597  TIP3      6327            0.0000000000
     27558      6392  TIP3      OH2            -6.3146502225       -5.9886541752      -30.0041880413  TIP3      6328            0.0000000000
     27559      6392  TIP3      H1             -6.4997391709       -6.7739489546      -30.5695166312  TIP3      6328            0.0000000000
     27560      6392  TIP3      H2             -6.3763414905       -5.2558834723      -30.6552424479  TIP3      6328            0.0000000000
     27561      6393  TIP3      OH2           -20.0706403480       -5.8141131203      -34.1412057745  TIP3      6329            0.0000000000
     27562      6393  TIP3      H1            -20.3548938635       -5.5374730629      -33.2555581405  TIP3      6329            0.0000000000
     27563      6393  TIP3      H2            -19.2975259768       -6.3765304771      -33.9503838827  TIP3      6329            0.0000000000
     27564      6394  TIP3      OH2             7.3614322838      -13.3268548598      -27.9486841119  TIP3      6330            0.0000000000
     27565      6394  TIP3      H1              7.3958634518      -12.3466593688      -28.0164840016  TIP3      6330            0.0000000000
     27566      6394  TIP3      H2              6.6984867259      -13.5540948028      -28.6230156875  TIP3      6330            0.0000000000
     27567      6395  TIP3      OH2             6.4931195574      -14.0699283025      -24.4056476790  TIP3      6331            0.0000000000
     27568      6395  TIP3      H1              6.5674426940      -14.7838602785      -23.7605929831  TIP3      6331            0.0000000000
     27569      6395  TIP3      H2              6.4418552149      -14.5505804988      -25.2550023703  TIP3      6331            0.0000000000
     27570      6396  TIP3      OH2             9.8615504896      -11.1263313739      -26.2569810621  TIP3      6332            0.0000000000
     27571      6396  TIP3      H1              9.5810007707      -11.8704128137      -25.7159835000  TIP3      6332            0.0000000000
     27572      6396  TIP3      H2             10.0073216125      -10.4696042289      -25.5512433433  TIP3      6332            0.0000000000
     27573      6397  TIP3      OH2            -0.4414222846       -9.9261138247      -24.4428581333  TIP3      6333            0.0000000000
     27574      6397  TIP3      H1             -0.7357370188      -10.8147447711      -24.7160571411  TIP3      6333            0.0000000000
     27575      6397  TIP3      H2              0.5171015334      -10.0705904469      -24.3752013117  TIP3      6333            0.0000000000
     27576      6398  TIP3      OH2            -3.7876368642      -16.4102753631      -28.8729525661  TIP3      6334            0.0000000000
     27577      6398  TIP3      H1             -4.2569503506      -15.5733034315      -29.0239487900  TIP3      6334            0.0000000000
     27578      6398  TIP3      H2             -4.3746849483      -16.9302738560      -29.4504868588  TIP3      6334            0.0000000000
     27579      6399  TIP3      OH2            -3.0610110873      -14.1714732143      -26.7297224712  TIP3      6335            0.0000000000
     27580      6399  TIP3      H1             -2.8386250318      -15.0516048255      -26.3694279096  TIP3      6335            0.0000000000
     27581      6399  TIP3      H2             -2.4733652115      -14.0789860807      -27.4944834194  TIP3      6335            0.0000000000
     27582      6400  TIP3      OH2             7.0172616296       -5.9796711564      -25.9296833394  TIP3      6336            0.0000000000
     27583      6400  TIP3      H1              7.7089962198       -6.6282273010      -26.2192303683  TIP3      6336            0.0000000000
     27584      6400  TIP3      H2              6.8662939413       -6.2774426746      -25.0292438931  TIP3      6336            0.0000000000
     27585      6401  TIP3      OH2             4.6664871366      -11.7941472618      -23.8996275877  TIP3      6337            0.0000000000
     27586      6401  TIP3      H1              5.0334099922      -12.1006252471      -24.7403185139  TIP3      6337            0.0000000000
     27587      6401  TIP3      H2              5.4853200993      -11.5199452932      -23.4801279615  TIP3      6337            0.0000000000
     27588      6402  TIP3      OH2            13.7501338107      -19.9930962292      -23.4779585965  TIP3      6338            0.0000000000
     27589      6402  TIP3      H1             13.5632128594      -19.3517382494      -22.7747330803  TIP3      6338            0.0000000000
     27590      6402  TIP3      H2             14.0004746957      -19.4132871914      -24.2097609879  TIP3      6338            0.0000000000
     27591      6403  TIP3      OH2             7.6969364087      -17.2146046538      -23.6438964722  TIP3      6339            0.0000000000
     27592      6403  TIP3      H1              7.9584398094      -18.1702622917      -23.6594476662  TIP3      6339            0.0000000000
     27593      6403  TIP3      H2              7.7402789758      -17.0700073563      -24.6027610377  TIP3      6339            0.0000000000
     27594      6404  TIP3      OH2             0.8761698344      -19.0507530595      -26.4596235032  TIP3      6340            0.0000000000
     27595      6404  TIP3      H1              1.0239933533      -18.2753144325      -27.0265680057  TIP3      6340            0.0000000000
     27596      6404  TIP3      H2              0.5637972476      -19.7167240974      -27.1099040324  TIP3      6340            0.0000000000
     27597      6405  TIP3      OH2             8.6799948133      -19.1140426907      -28.1396478288  TIP3      6341            0.0000000000
     27598      6405  TIP3      H1              9.2683487293      -19.4155706332      -27.4095826132  TIP3      6341            0.0000000000
     27599      6405  TIP3      H2              9.2574161296      -18.4776524921      -28.5795969289  TIP3      6341            0.0000000000
     27600      6406  TIP3      OH2            -2.4444596082      -16.7047320490      -25.7381189176  TIP3      6342            0.0000000000
     27601      6406  TIP3      H1             -1.7897702809      -17.2781851734      -25.2901448617  TIP3      6342            0.0000000000
     27602      6406  TIP3      H2             -2.3572167431      -17.0159013340      -26.6579545438  TIP3      6342            0.0000000000
     27603      6407  TIP3      OH2             2.6518262017      -15.2455382530      -26.3983757810  TIP3      6343            0.0000000000
     27604      6407  TIP3      H1              3.3012507635      -15.9352768888      -26.1807240026  TIP3      6343            0.0000000000
     27605      6407  TIP3      H2              2.1172424282      -15.7847191813      -27.0226198086  TIP3      6343            0.0000000000
     27606      6408  TIP3      OH2            -0.2539070535      -20.2596702870      -22.4631575855  TIP3      6344            0.0000000000
     27607      6408  TIP3      H1             -0.4617996953      -19.5976392092      -23.1529791327  TIP3      6344            0.0000000000
     27608      6408  TIP3      H2             -0.8402081219      -19.9727755016      -21.7209432537  TIP3      6344            0.0000000000
     27609      6409  TIP3      OH2             7.0901387344      -10.7659956407      -28.8995719226  TIP3      6345            0.0000000000
     27610      6409  TIP3      H1              6.8501982946      -11.0128662362      -29.8013764314  TIP3      6345            0.0000000000
     27611      6409  TIP3      H2              6.7970170814       -9.8265382307      -28.8393206341  TIP3      6345            0.0000000000
     27612      6410  TIP3      OH2             2.3010221936      -12.6297804834      -22.3208414457  TIP3      6346            0.0000000000
     27613      6410  TIP3      H1              1.6354517506      -11.9960603330      -21.9473946784  TIP3      6346            0.0000000000
     27614      6410  TIP3      H2              3.0188806029      -11.9994038347      -22.4567781874  TIP3      6346            0.0000000000
     27615      6411  TIP3      OH2            10.3966653023      -19.6447316772      -26.0580031934  TIP3      6347            0.0000000000
     27616      6411  TIP3      H1             10.2461480613      -20.4627639102      -25.5539162995  TIP3      6347            0.0000000000
     27617      6411  TIP3      H2             11.1291608740      -19.2534232562      -25.5634180969  TIP3      6347            0.0000000000
     27618      6412  TIP3      OH2            -0.6689328474      -18.3557528245      -24.3973084112  TIP3      6348            0.0000000000
     27619      6412  TIP3      H1             -0.0058402036      -17.6955437073      -24.1098574782  TIP3      6348            0.0000000000
     27620      6412  TIP3      H2             -0.1352236947      -18.8098503943      -25.1067063635  TIP3      6348            0.0000000000
     27621      6413  TIP3      OH2             0.8527653852      -10.5990130099      -21.4765817500  TIP3      6349            0.0000000000
     27622      6413  TIP3      H1              0.7468041876       -9.6569223807      -21.6578266933  TIP3      6349            0.0000000000
     27623      6413  TIP3      H2              0.0344995654      -10.6623171075      -20.9260014883  TIP3      6349            0.0000000000
     27624      6414  TIP3      OH2            -3.0924350635      -10.9738292206      -30.6180632097  TIP3      6350            0.0000000000
     27625      6414  TIP3      H1             -3.3764447645      -10.5971803873      -31.4696675402  TIP3      6350            0.0000000000
     27626      6414  TIP3      H2             -3.0458619053      -10.1734420058      -30.0587948020  TIP3      6350            0.0000000000
     27627      6415  TIP3      OH2            10.4166051739       -9.2740013562      -23.9096732319  TIP3      6351            0.0000000000
     27628      6415  TIP3      H1              9.4690777676       -9.1284262894      -23.7412024001  TIP3      6351            0.0000000000
     27629      6415  TIP3      H2             10.7232859271       -8.3494718239      -23.9980490391  TIP3      6351            0.0000000000
     27630      6416  TIP3      OH2             9.9915738657      -21.0911283390      -23.5926521195  TIP3      6352            0.0000000000
     27631      6416  TIP3      H1              9.7109209173      -20.5870525976      -22.8218342999  TIP3      6352            0.0000000000
     27632      6416  TIP3      H2             10.9493117823      -21.0022876721      -23.5214954612  TIP3      6352            0.0000000000
     27633      6417  TIP3      OH2             3.9494419294      -22.6461614122      -24.8313044609  TIP3      6353            0.0000000000
     27634      6417  TIP3      H1              3.8156474216      -23.6012110391      -24.9871210396  TIP3      6353            0.0000000000
     27635      6417  TIP3      H2              3.0318381523      -22.3611287187      -24.7179805278  TIP3      6353            0.0000000000
     27636      6418  TIP3      OH2             8.7055049447       -7.5064988420      -27.2636723274  TIP3      6354            0.0000000000
     27637      6418  TIP3      H1              9.1389025425       -8.2437060847      -27.7441498935  TIP3      6354            0.0000000000
     27638      6418  TIP3      H2              9.2201290785       -6.7416181764      -27.6056551436  TIP3      6354            0.0000000000
     27639      6419  TIP3      OH2             9.9692532104       -9.5953061045      -28.6992605688  TIP3      6355            0.0000000000
     27640      6419  TIP3      H1              9.6428514599      -10.2728641846      -29.3128813444  TIP3      6355            0.0000000000
     27641      6419  TIP3      H2              9.9825179400      -10.0963343290      -27.8587091475  TIP3      6355            0.0000000000
     27642      6420  TIP3      OH2             6.0434225910      -14.1234618514      -30.4588548128  TIP3      6356            0.0000000000
     27643      6420  TIP3      H1              5.3604241504      -13.5275614320      -30.8134702461  TIP3      6356            0.0000000000
     27644      6420  TIP3      H2              6.7617157759      -13.9970562340      -31.1080579964  TIP3      6356            0.0000000000
     27645      6421  TIP3      OH2             6.1510419757      -15.5023160780      -33.4670478418  TIP3      6357            0.0000000000
     27646      6421  TIP3      H1              6.8529115486      -15.4951754600      -32.7972215547  TIP3      6357            0.0000000000
     27647      6421  TIP3      H2              6.4506365105      -16.2506431587      -33.9959608816  TIP3      6357            0.0000000000
     27648      6422  TIP3      OH2             9.5249402273      -13.9320365135      -29.5561138603  TIP3      6358            0.0000000000
     27649      6422  TIP3      H1              8.7972615299      -13.6652747986      -28.9536827424  TIP3      6358            0.0000000000
     27650      6422  TIP3      H2             10.0243070249      -14.5647184330      -29.0087069905  TIP3      6358            0.0000000000
     27651      6423  TIP3      OH2             1.1385316727      -13.2235164857      -27.6062934444  TIP3      6359            0.0000000000
     27652      6423  TIP3      H1              0.7833048054      -13.5817736862      -28.4584735561  TIP3      6359            0.0000000000
     27653      6423  TIP3      H2              1.7504704756      -13.9407767944      -27.3418966498  TIP3      6359            0.0000000000
     27654      6424  TIP3      OH2             2.4423636643       -9.8498384372      -24.9136429442  TIP3      6360            0.0000000000
     27655      6424  TIP3      H1              2.4073116921      -10.3005104203      -25.7734883608  TIP3      6360            0.0000000000
     27656      6424  TIP3      H2              3.2408278130      -10.2102473057      -24.5161560131  TIP3      6360            0.0000000000
     27657      6425  TIP3      OH2             1.5431565801      -14.5787185220      -23.9053296334  TIP3      6361            0.0000000000
     27658      6425  TIP3      H1              1.7561915473      -14.3501805277      -24.8319461717  TIP3      6361            0.0000000000
     27659      6425  TIP3      H2              1.6902936140      -13.7484971907      -23.3869694876  TIP3      6361            0.0000000000
     27660      6426  TIP3      OH2             7.8094897391       -8.9893199192      -23.2837032658  TIP3      6362            0.0000000000
     27661      6426  TIP3      H1              7.6746344924       -8.3172856139      -22.6168922048  TIP3      6362            0.0000000000
     27662      6426  TIP3      H2              7.6532551299       -9.8131219325      -22.8200190424  TIP3      6362            0.0000000000
     27663      6427  TIP3      OH2             8.4090339328      -14.6580866787      -31.8881814399  TIP3      6363            0.0000000000
     27664      6427  TIP3      H1              8.9514085201      -14.4865120228      -31.0778852841  TIP3      6363            0.0000000000
     27665      6427  TIP3      H2              8.8843207418      -14.1789493114      -32.6096030178  TIP3      6363            0.0000000000
     27666      6428  TIP3      OH2             6.0805000060       -7.9821915263      -28.3920732826  TIP3      6364            0.0000000000
     27667      6428  TIP3      H1              6.5209219603       -7.6504843892      -27.6021832414  TIP3      6364            0.0000000000
     27668      6428  TIP3      H2              5.5548112948       -7.2236164067      -28.6770098062  TIP3      6364            0.0000000000
     27669      6429  TIP3      OH2            12.1524741942      -22.9652517390      -31.9802093656  TIP3      6365            0.0000000000
     27670      6429  TIP3      H1             11.2460184948      -22.8081248202      -31.6734830584  TIP3      6365            0.0000000000
     27671      6429  TIP3      H2             12.3779311180      -22.1028489419      -32.3719067481  TIP3      6365            0.0000000000
     27672      6430  TIP3      OH2             0.0596843766      -14.2517104817      -29.9889202423  TIP3      6366            0.0000000000
     27673      6430  TIP3      H1             -0.2069206848      -13.4542813534      -30.4947125759  TIP3      6366            0.0000000000
     27674      6430  TIP3      H2             -0.5894903447      -14.9066276584      -30.2708462132  TIP3      6366            0.0000000000
     27675      6431  TIP3      OH2            13.2330982850       -8.6059803329      -33.6195931551  TIP3      6367            0.0000000000
     27676      6431  TIP3      H1             13.4259360422       -7.6683022018      -33.4453037813  TIP3      6367            0.0000000000
     27677      6431  TIP3      H2             14.1438255710       -8.9532680863      -33.5864903281  TIP3      6367            0.0000000000
     27678      6432  TIP3      OH2            -4.0262404246       -9.0268255600      -24.2733706397  TIP3      6368            0.0000000000
     27679      6432  TIP3      H1             -3.0700894755       -9.1071223932      -24.3786130630  TIP3      6368            0.0000000000
     27680      6432  TIP3      H2             -4.1105648229       -8.2018306014      -23.7862073908  TIP3      6368            0.0000000000
     27681      6433  TIP3      OH2             5.5989979487       -5.0700348816      -29.9981121727  TIP3      6369            0.0000000000
     27682      6433  TIP3      H1              5.4698971495       -5.1209711900      -30.9593576428  TIP3      6369            0.0000000000
     27683      6433  TIP3      H2              5.5847345011       -4.1125709851      -29.8185698771  TIP3      6369            0.0000000000
     27684      6434  TIP3      OH2            -0.7831079416       -6.1901832428      -28.1597141965  TIP3      6370            0.0000000000
     27685      6434  TIP3      H1             -0.6339102948       -6.5964364387      -27.2745058075  TIP3      6370            0.0000000000
     27686      6434  TIP3      H2             -1.6309075614       -6.6037750405      -28.3973608881  TIP3      6370            0.0000000000
     27687      6435  TIP3      OH2             8.6463331799       -5.8352161349      -33.0258386131  TIP3      6371            0.0000000000
     27688      6435  TIP3      H1              9.1193204147       -6.5922079809      -33.4439693741  TIP3      6371            0.0000000000
     27689      6435  TIP3      H2              8.6813602539       -6.0806303061      -32.0765583583  TIP3      6371            0.0000000000
     27690      6436  TIP3      OH2             8.3390213444       -5.9054514965      -30.2306537075  TIP3      6372            0.0000000000
     27691      6436  TIP3      H1              7.3742061164       -5.8256839738      -30.0889272883  TIP3      6372            0.0000000000
     27692      6436  TIP3      H2              8.5442376234       -6.6614648294      -29.6592416187  TIP3      6372            0.0000000000
     27693      6437  TIP3      OH2            -1.5407990352      -10.4122109293      -20.3107903719  TIP3      6373            0.0000000000
     27694      6437  TIP3      H1             -1.3334338096      -10.5341346808      -19.3612228013  TIP3      6373            0.0000000000
     27695      6437  TIP3      H2             -2.4740899714      -10.6862892064      -20.2954550576  TIP3      6373            0.0000000000
     27696      6438  TIP3      OH2             1.1514581567      -21.4312717116      -24.3794355551  TIP3      6374            0.0000000000
     27697      6438  TIP3      H1              0.2911355881      -21.8273667860      -24.6545083939  TIP3      6374            0.0000000000
     27698      6438  TIP3      H2              0.8779778407      -20.9666277594      -23.5650481360  TIP3      6374            0.0000000000
     27699      6439  TIP3      OH2             5.6977372229      -22.0261744373      -20.5829668213  TIP3      6375            0.0000000000
     27700      6439  TIP3      H1              6.2546269904      -22.6578013670      -20.0994387340  TIP3      6375            0.0000000000
     27701      6439  TIP3      H2              4.8532013669      -22.4905972618      -20.5567070763  TIP3      6375            0.0000000000
     27702      6440  TIP3      OH2             9.8495395944      -13.6295728966      -33.9759505153  TIP3      6376            0.0000000000
     27703      6440  TIP3      H1              9.7790798341      -13.8198029265      -34.9388955914  TIP3      6376            0.0000000000
     27704      6440  TIP3      H2             10.7086312783      -13.1838301987      -33.9887155999  TIP3      6376            0.0000000000
     27705      6441  TIP3      OH2             5.4589451151      -19.7349035307      -33.5168241395  TIP3      6377            0.0000000000
     27706      6441  TIP3      H1              5.1045066694      -19.8132709859      -32.6167022525  TIP3      6377            0.0000000000
     27707      6441  TIP3      H2              5.1093803269      -20.5778459128      -33.8707000284  TIP3      6377            0.0000000000
     27708      6442  TIP3      OH2             1.2421963888      -17.0353350063      -23.0872235378  TIP3      6378            0.0000000000
     27709      6442  TIP3      H1              0.6341449083      -17.1295271511      -22.3449845617  TIP3      6378            0.0000000000
     27710      6442  TIP3      H2              1.1966713426      -16.0908532285      -23.3444116238  TIP3      6378            0.0000000000
     27711      6443  TIP3      OH2             1.2276382541      -16.8704797358      -28.1266418199  TIP3      6379            0.0000000000
     27712      6443  TIP3      H1              0.2869557228      -17.1500449497      -28.2027879131  TIP3      6379            0.0000000000
     27713      6443  TIP3      H2              1.5708209487      -17.2095373549      -28.9778632437  TIP3      6379            0.0000000000
     27714      6444  TIP3      OH2             6.7520906262      -16.3449658468      -29.2826011159  TIP3      6380            0.0000000000
     27715      6444  TIP3      H1              6.3554297256      -15.5519542758      -29.7127819146  TIP3      6380            0.0000000000
     27716      6444  TIP3      H2              7.4023337790      -16.5826808321      -29.9665161682  TIP3      6380            0.0000000000
     27717      6445  TIP3      OH2             7.6823390190      -16.8837347102      -26.4914519654  TIP3      6381            0.0000000000
     27718      6445  TIP3      H1              7.4863947749      -16.3334900705      -27.2698999631  TIP3      6381            0.0000000000
     27719      6445  TIP3      H2              7.8764662943      -17.7223719434      -26.9624032893  TIP3      6381            0.0000000000
     27720      6446  TIP3      OH2             2.2268268398      -19.3960510438      -34.4307829663  TIP3      6382            0.0000000000
     27721      6446  TIP3      H1              1.7436671893      -19.8139059233      -33.6806194979  TIP3      6382            0.0000000000
     27722      6446  TIP3      H2              1.5400058567      -18.9478325581      -34.9450596838  TIP3      6382            0.0000000000
     27723      6447  TIP3      OH2            -4.4545698301      -19.6692130904      -27.2864022328  TIP3      6383            0.0000000000
     27724      6447  TIP3      H1             -3.7302366658      -19.6218373076      -26.6327912225  TIP3      6383            0.0000000000
     27725      6447  TIP3      H2             -4.0089422767      -19.9768926571      -28.0999933673  TIP3      6383            0.0000000000
     27726      6448  TIP3      OH2            -3.0419144941      -19.0295698560      -31.8645395244  TIP3      6384            0.0000000000
     27727      6448  TIP3      H1             -2.6276481552      -18.4319912714      -32.5159216462  TIP3      6384            0.0000000000
     27728      6448  TIP3      H2             -3.8061903665      -18.4417795791      -31.6871555205  TIP3      6384            0.0000000000
     27729      6449  TIP3      OH2             3.7586973401      -19.2170541107      -27.0604329440  TIP3      6385            0.0000000000
     27730      6449  TIP3      H1              2.8333393483      -19.4152917546      -26.8074720721  TIP3      6385            0.0000000000
     27731      6449  TIP3      H2              4.2484439132      -19.6212580157      -26.3294087051  TIP3      6385            0.0000000000
     27732      6450  TIP3      OH2            -1.3738520464      -17.7724224653      -28.2424462500  TIP3      6386            0.0000000000
     27733      6450  TIP3      H1             -2.2679774731      -17.6153108698      -28.6168723441  TIP3      6386            0.0000000000
     27734      6450  TIP3      H2             -1.1357758452      -18.6484411166      -28.6092164157  TIP3      6386            0.0000000000
     27735      6451  TIP3      OH2             2.2116271004      -17.7276170220      -30.5869067238  TIP3      6387            0.0000000000
     27736      6451  TIP3      H1              3.1728619551      -17.6469245013      -30.4539271251  TIP3      6387            0.0000000000
     27737      6451  TIP3      H2              1.9799943158      -17.0501307518      -31.2515928402  TIP3      6387            0.0000000000
     27738      6452  TIP3      OH2             7.7495773505      -19.7665825924      -23.8802282998  TIP3      6388            0.0000000000
     27739      6452  TIP3      H1              7.3483815873      -20.2831274793      -23.1880430603  TIP3      6388            0.0000000000
     27740      6452  TIP3      H2              7.6960692308      -20.3926678997      -24.6296295739  TIP3      6388            0.0000000000
     27741      6453  TIP3      OH2             0.9780871967      -16.5714943993      -33.0127465006  TIP3      6389            0.0000000000
     27742      6453  TIP3      H1              0.4159200590      -16.9480040241      -33.7142440700  TIP3      6389            0.0000000000
     27743      6453  TIP3      H2              1.7773557720      -16.3503548853      -33.5102690549  TIP3      6389            0.0000000000
     27744      6454  TIP3      OH2             5.0446943968      -16.7345980137      -25.1970500142  TIP3      6390            0.0000000000
     27745      6454  TIP3      H1              5.6753563308      -17.2148571839      -25.7696506247  TIP3      6390            0.0000000000
     27746      6454  TIP3      H2              4.9771867142      -17.3519659139      -24.4667191086  TIP3      6390            0.0000000000
     27747      6455  TIP3      OH2            -0.0027874476      -20.4504924665      -28.7744308785  TIP3      6391            0.0000000000
     27748      6455  TIP3      H1             -0.3217129877      -21.3666729598      -28.7142561549  TIP3      6391            0.0000000000
     27749      6455  TIP3      H2              0.8086258486      -20.5706044327      -29.2920535063  TIP3      6391            0.0000000000
     27750      6456  TIP3      OH2             4.2672759136      -12.0559955122      -31.0693920344  TIP3      6392            0.0000000000
     27751      6456  TIP3      H1              3.4628459015      -12.5045363151      -31.4196342161  TIP3      6392            0.0000000000
     27752      6456  TIP3      H2              4.0213278069      -11.8960193462      -30.1357104558  TIP3      6392            0.0000000000
     27753      6457  TIP3      OH2             8.0886555299      -19.2272304751      -32.9163456943  TIP3      6393            0.0000000000
     27754      6457  TIP3      H1              7.1338135225      -19.0757422725      -33.0556543615  TIP3      6393            0.0000000000
     27755      6457  TIP3      H2              8.4379650464      -18.3889109141      -32.5521589866  TIP3      6393            0.0000000000
     27756      6458  TIP3      OH2             8.8255978676      -17.2798778395      -31.3223139194  TIP3      6394            0.0000000000
     27757      6458  TIP3      H1              9.6909816610      -17.4254754622      -30.8758622042  TIP3      6394            0.0000000000
     27758      6458  TIP3      H2              8.9596377598      -16.4550350295      -31.8164746710  TIP3      6394            0.0000000000
     27759      6459  TIP3      OH2            -0.5392677543      -12.6579095008      -25.1776864837  TIP3      6395            0.0000000000
     27760      6459  TIP3      H1             -0.0154871142      -12.6883253641      -26.0061045658  TIP3      6395            0.0000000000
     27761      6459  TIP3      H2             -0.5398671097      -13.5702322619      -24.8899999278  TIP3      6395            0.0000000000
     27762      6460  TIP3      OH2             6.3449973375      -10.5835184468      -32.0498699699  TIP3      6396            0.0000000000
     27763      6460  TIP3      H1              6.0014035105       -9.7286463612      -31.7086299112  TIP3      6396            0.0000000000
     27764      6460  TIP3      H2              5.6178128171      -11.1995651581      -31.8179688633  TIP3      6396            0.0000000000
     27765      6461  TIP3      OH2            13.7112756732      -17.1607064996      -31.5077105174  TIP3      6397            0.0000000000
     27766      6461  TIP3      H1             13.1732538739      -17.4439553563      -32.2735082439  TIP3      6397            0.0000000000
     27767      6461  TIP3      H2             13.7952414760      -16.2069136049      -31.7363615682  TIP3      6397            0.0000000000
     27768      6462  TIP3      OH2            11.9702901399       -8.3383727241      -31.1464222344  TIP3      6398            0.0000000000
     27769      6462  TIP3      H1             11.6690173347       -9.1734064009      -30.7705982292  TIP3      6398            0.0000000000
     27770      6462  TIP3      H2             12.3578424225       -8.5849085665      -32.0021523865  TIP3      6398            0.0000000000
     27771      6463  TIP3      OH2             9.2450399529      -13.5274207631      -23.9895536575  TIP3      6399            0.0000000000
     27772      6463  TIP3      H1              8.3240244520      -13.7085541870      -24.1932370196  TIP3      6399            0.0000000000
     27773      6463  TIP3      H2              9.6970688744      -14.2716656833      -24.4207854122  TIP3      6399            0.0000000000
     27774      6464  TIP3      OH2             1.7582164439       -9.1642876534      -27.8658491110  TIP3      6400            0.0000000000
     27775      6464  TIP3      H1              2.2522093077       -8.3602530455      -28.1057753976  TIP3      6400            0.0000000000
     27776      6464  TIP3      H2              0.8890419924       -8.9585050240      -28.2343947833  TIP3      6400            0.0000000000
     27777      6465  TIP3      OH2            -2.4040319071      -14.3324950859      -33.3689907442  TIP3      6401            0.0000000000
     27778      6465  TIP3      H1             -1.8991220180      -13.6637909203      -32.8804631610  TIP3      6401            0.0000000000
     27779      6465  TIP3      H2             -3.3379489200      -14.1224800530      -33.1008014069  TIP3      6401            0.0000000000
     27780      6466  TIP3      OH2             3.1666223166      -11.5157601764      -28.3550792659  TIP3      6402            0.0000000000
     27781      6466  TIP3      H1              2.8393379808      -10.5945565169      -28.3321509553  TIP3      6402            0.0000000000
     27782      6466  TIP3      H2              2.4066338227      -11.9953734888      -27.9794952093  TIP3      6402            0.0000000000
     27783      6467  TIP3      OH2             1.8355561366       -6.5384059037      -28.8947062494  TIP3      6403            0.0000000000
     27784      6467  TIP3      H1              0.8763378325       -6.3920331099      -28.7231145697  TIP3      6403            0.0000000000
     27785      6467  TIP3      H2              2.2161563626       -5.7133315964      -28.5406840410  TIP3      6403            0.0000000000
     27786      6468  TIP3      OH2             9.5144494786      -10.2295456341      -33.2640550873  TIP3      6404            0.0000000000
     27787      6468  TIP3      H1              9.7975328423      -10.7285977138      -32.4714014111  TIP3      6404            0.0000000000
     27788      6468  TIP3      H2              8.5641205729      -10.4367154778      -33.2123564550  TIP3      6404            0.0000000000
     27789      6469  TIP3      OH2            13.9416449577       -5.9089761137      -33.0069675030  TIP3      6405            0.0000000000
     27790      6469  TIP3      H1             14.6156415391       -5.2376392695      -33.2320855150  TIP3      6405            0.0000000000
     27791      6469  TIP3      H2             13.2237291622       -5.3037531953      -32.7169828735  TIP3      6405            0.0000000000
     27792      6470  TIP3      OH2            -2.0210353449      -19.5376140658      -20.5718422442  TIP3      6406            0.0000000000
     27793      6470  TIP3      H1             -2.8808398614      -19.1648396969      -20.3952529949  TIP3      6406            0.0000000000
     27794      6470  TIP3      H2             -1.9863542056      -20.2951252844      -19.9490539500  TIP3      6406            0.0000000000
     27795      6471  TIP3      OH2            10.2516039027      -11.6170433512      -31.0160645019  TIP3      6407            0.0000000000
     27796      6471  TIP3      H1             10.0126836491      -12.4175585499      -30.5019529836  TIP3      6407            0.0000000000
     27797      6471  TIP3      H2             11.2099413614      -11.5967881267      -30.8655779759  TIP3      6407            0.0000000000
     27798      6472  TIP3      OH2            -2.2732288868       -7.7342079799      -22.0951974065  TIP3      6408            0.0000000000
     27799      6472  TIP3      H1             -2.0548616686       -8.6753749973      -22.0015249477  TIP3      6408            0.0000000000
     27800      6472  TIP3      H2             -2.1013228954       -7.4198297663      -21.1903905363  TIP3      6408            0.0000000000
     27801      6473  TIP3      OH2             3.6363082166       -9.1753299044      -34.7491885277  TIP3      6409            0.0000000000
     27802      6473  TIP3      H1              3.6972175452       -9.9287777904      -35.3599428136  TIP3      6409            0.0000000000
     27803      6473  TIP3      H2              3.1351939854       -9.6020227961      -34.0203789880  TIP3      6409            0.0000000000
     27804      6474  TIP3      OH2             2.3520456539       -9.6633018971      -32.2970452381  TIP3      6410            0.0000000000
     27805      6474  TIP3      H1              2.6940482030      -10.1803077958      -31.5572771767  TIP3      6410            0.0000000000
     27806      6474  TIP3      H2              2.4819884858       -8.7404939699      -31.9764628861  TIP3      6410            0.0000000000
     27807      6475  TIP3      OH2            -1.0524172598      -12.4195819041      -31.8094184848  TIP3      6411            0.0000000000
     27808      6475  TIP3      H1             -1.7922893838      -12.0040231359      -31.3178211780  TIP3      6411            0.0000000000
     27809      6475  TIP3      H2             -0.5730191867      -11.6445421039      -32.1531694633  TIP3      6411            0.0000000000
     27810      6476  TIP3      OH2             7.6458550376      -20.2539725997      -30.4117403767  TIP3      6412            0.0000000000
     27811      6476  TIP3      H1              7.7085339441      -19.7193298792      -31.2314695055  TIP3      6412            0.0000000000
     27812      6476  TIP3      H2              8.0416387003      -19.6482176430      -29.7582067033  TIP3      6412            0.0000000000
     27813      6477  TIP3      OH2             5.1836444380       -8.0103425783      -31.6370066319  TIP3      6413            0.0000000000
     27814      6477  TIP3      H1              4.3641423680       -7.4801239240      -31.5456780010  TIP3      6413            0.0000000000
     27815      6477  TIP3      H2              5.7304832648       -7.4338835079      -32.1885019249  TIP3      6413            0.0000000000
     27816      6478  TIP3      OH2             4.7522743011      -18.4598660874      -29.6372060144  TIP3      6414            0.0000000000
     27817      6478  TIP3      H1              5.4876716068      -17.8246700033      -29.5416280060  TIP3      6414            0.0000000000
     27818      6478  TIP3      H2              4.4461911267      -18.5957742965      -28.7162443573  TIP3      6414            0.0000000000
     27819      6479  TIP3      OH2             5.5666844795      -21.3339750664      -28.6598931621  TIP3      6415            0.0000000000
     27820      6479  TIP3      H1              5.2236642199      -20.6500001714      -28.0691389950  TIP3      6415            0.0000000000
     27821      6479  TIP3      H2              6.2273491564      -20.8263742090      -29.1756854375  TIP3      6415            0.0000000000
     27822      6480  TIP3      OH2             2.6216332023       -6.9879872958      -31.5823983182  TIP3      6416            0.0000000000
     27823      6480  TIP3      H1              2.6815604019       -6.1808260080      -32.1490441163  TIP3      6416            0.0000000000
     27824      6480  TIP3      H2              2.3102824332       -6.6097064231      -30.7278618997  TIP3      6416            0.0000000000
     27825      6481  TIP3      OH2             1.1801982158      -20.2091702226      -32.0591571742  TIP3      6417            0.0000000000
     27826      6481  TIP3      H1              1.1679439196      -19.3487615639      -31.6068112940  TIP3      6417            0.0000000000
     27827      6481  TIP3      H2              2.0707807380      -20.5129611521      -31.7780182214  TIP3      6417            0.0000000000
     27828      6482  TIP3      OH2            10.0792279586      -15.7368377467      -25.6353314686  TIP3      6418            0.0000000000
     27829      6482  TIP3      H1              9.2544057726      -16.2003256710      -25.8622196712  TIP3      6418            0.0000000000
     27830      6482  TIP3      H2             10.5733602391      -16.3893938079      -25.1007393961  TIP3      6418            0.0000000000
     27831      6483  TIP3      OH2            -0.5484614987       -9.8110568463      -32.9985432649  TIP3      6419            0.0000000000
     27832      6483  TIP3      H1              0.1436352576       -9.2316291452      -32.6451394225  TIP3      6419            0.0000000000
     27833      6483  TIP3      H2             -0.0200950374      -10.2977115588      -33.6619271110  TIP3      6419            0.0000000000
     27834      6484  TIP3      OH2            -2.1716653305      -17.1293919723      -33.9157645136  TIP3      6420            0.0000000000
     27835      6484  TIP3      H1             -2.1508477487      -16.2119231376      -33.5710481641  TIP3      6420            0.0000000000
     27836      6484  TIP3      H2             -3.1180040455      -17.2595681748      -34.0650878363  TIP3      6420            0.0000000000
     27837      6485  TIP3      OH2            11.1380075664       -6.5279374730      -23.9075313204  TIP3      6421            0.0000000000
     27838      6485  TIP3      H1             10.9773873271       -5.7828018588      -24.5276391975  TIP3      6421            0.0000000000
     27839      6485  TIP3      H2             12.0559766114       -6.3732688694      -23.6948835252  TIP3      6421            0.0000000000
     27840      6486  TIP3      OH2            -1.4043836681      -22.2721639338      -25.1464368007  TIP3      6422            0.0000000000
     27841      6486  TIP3      H1             -1.5720561935      -22.3269139250      -26.1162368035  TIP3      6422            0.0000000000
     27842      6486  TIP3      H2             -1.7059723927      -23.1557087045      -24.8540214193  TIP3      6422            0.0000000000
     27843      6487  TIP3      OH2            -2.4294213726       -8.4206750711      -28.9087184824  TIP3      6423            0.0000000000
     27844      6487  TIP3      H1             -3.2935695422       -8.0026951574      -28.9981987078  TIP3      6423            0.0000000000
     27845      6487  TIP3      H2             -1.9763174110       -8.0029219149      -29.6546636178  TIP3      6423            0.0000000000
     27846      6488  TIP3      OH2             5.6341139079       -7.3312566102      -34.6311790715  TIP3      6424            0.0000000000
     27847      6488  TIP3      H1              4.9212645363       -7.9901212263      -34.4599481537  TIP3      6424            0.0000000000
     27848      6488  TIP3      H2              6.3366414370       -7.9405529538      -34.9020883762  TIP3      6424            0.0000000000
     27849      6489  TIP3      OH2            10.1719416645       -7.6158998981      -34.4677900295  TIP3      6425            0.0000000000
     27850      6489  TIP3      H1             10.4584903242       -8.3845536012      -33.9474193023  TIP3      6425            0.0000000000
     27851      6489  TIP3      H2             10.9394571260       -7.4214556232      -35.0235449604  TIP3      6425            0.0000000000
     27852      6490  TIP3      OH2             1.0472609725      -11.6553820718      -34.6806402801  TIP3      6426            0.0000000000
     27853      6490  TIP3      H1              1.1795550392      -12.4012562855      -34.0763516017  TIP3      6426            0.0000000000
     27854      6490  TIP3      H2              1.8168287544      -11.7785978167      -35.2708394488  TIP3      6426            0.0000000000
     27855      6491  TIP3      OH2             6.4912210783      -10.5350131482      -34.8709637604  TIP3      6427            0.0000000000
     27856      6491  TIP3      H1              6.2198658612      -10.4836541330      -33.9402064345  TIP3      6427            0.0000000000
     27857      6491  TIP3      H2              6.3162209366      -11.4915316716      -35.0396330228  TIP3      6427            0.0000000000
     27858      6492  TIP3      OH2             2.2527939242      -13.6263766904      -32.1718458298  TIP3      6428            0.0000000000
     27859      6492  TIP3      H1              1.7055502395      -14.1854604466      -31.6013508964  TIP3      6428            0.0000000000
     27860      6492  TIP3      H2              2.5670051200      -14.2781958404      -32.8411306906  TIP3      6428            0.0000000000
     27861      6493  TIP3      OH2             3.3296092705      -15.3954778294      -34.0168415479  TIP3      6429            0.0000000000
     27862      6493  TIP3      H1              3.1642010869      -15.4584227344      -34.9754991640  TIP3      6429            0.0000000000
     27863      6493  TIP3      H2              4.3067259797      -15.3849722430      -33.9478119453  TIP3      6429            0.0000000000
     27864      6494  TIP3      OH2            12.6188394471      -13.1053217627      -34.6225244149  TIP3      6430            0.0000000000
     27865      6494  TIP3      H1             12.4743186138      -13.4631230618      -35.5164999205  TIP3      6430            0.0000000000
     27866      6494  TIP3      H2             12.7313598527      -12.1392609166      -34.7940109662  TIP3      6430            0.0000000000
     27867      6495  TIP3      OH2             2.6277765243      -22.2160128112      -20.6759704468  TIP3      6431            0.0000000000
     27868      6495  TIP3      H1              2.9001426010      -21.4052797059      -21.1060216394  TIP3      6431            0.0000000000
     27869      6495  TIP3      H2              2.2780399486      -22.8297650348      -21.3283441951  TIP3      6431            0.0000000000
     27870      6496  TIP3      OH2             3.1444551564       -4.7027639937      -32.9140695089  TIP3      6432            0.0000000000
     27871      6496  TIP3      H1              4.1143189524       -4.6567667596      -32.8571123082  TIP3      6432            0.0000000000
     27872      6496  TIP3      H2              3.0176553755       -4.1434850166      -33.6918006913  TIP3      6432            0.0000000000
     27873      6497  TIP3      OH2            -3.3216119786      -10.1586900988      -33.4560716369  TIP3      6433            0.0000000000
     27874      6497  TIP3      H1             -2.3547095480      -10.0663295145      -33.2917085489  TIP3      6433            0.0000000000
     27875      6497  TIP3      H2             -3.2874341048      -10.7886508470      -34.2164997514  TIP3      6433            0.0000000000
     27876      6498  TIP3      OH2            -4.5149373952       -4.7927366116      -28.4956744325  TIP3      6434            0.0000000000
     27877      6498  TIP3      H1             -5.2370624484       -5.2828576742      -28.9506864920  TIP3      6434            0.0000000000
     27878      6498  TIP3      H2             -4.2334725704       -5.4335590377      -27.8193169287  TIP3      6434            0.0000000000
     27879      6499  TIP3      OH2            -3.7006979473       -6.6298725345      -26.6118770298  TIP3      6435            0.0000000000
     27880      6499  TIP3      H1             -4.0604478455       -7.4989205041      -26.3866489972  TIP3      6435            0.0000000000
     27881      6499  TIP3      H2             -3.4129704062       -6.3012293411      -25.7400514221  TIP3      6435            0.0000000000
     27882      6500  TIP3      OH2            13.1939064157      -12.1668911950      -30.6757153452  TIP3      6436            0.0000000000
     27883      6500  TIP3      H1             14.0648811392      -11.7841288689      -30.4766291142  TIP3      6436            0.0000000000
     27884      6500  TIP3      H2             13.1632494519      -12.8717747069      -29.9973077424  TIP3      6436            0.0000000000
     27885      6501  TIP3      OH2            13.5264360372      -14.0822702097      -28.7673404199  TIP3      6437            0.0000000000
     27886      6501  TIP3      H1             12.7757271011      -14.5606178598      -28.3524734143  TIP3      6437            0.0000000000
     27887      6501  TIP3      H2             14.1407216043      -13.9857178224      -28.0096615619  TIP3      6437            0.0000000000
     27888      6502  TIP3      OH2            13.4098216666      -11.3600516932      -23.6088163831  TIP3      6438            0.0000000000
     27889      6502  TIP3      H1             14.0620402096      -11.8402233999      -24.1493854954  TIP3      6438            0.0000000000
     27890      6502  TIP3      H2             13.4319247323      -10.4567410180      -23.9601996164  TIP3      6438            0.0000000000
     27891      6503  TIP3      OH2            13.8491887803      -14.2821339948      -32.3745869556  TIP3      6439            0.0000000000
     27892      6503  TIP3      H1             13.2658156537      -13.9720367206      -33.0966718753  TIP3      6439            0.0000000000
     27893      6503  TIP3      H2             13.7207437647      -13.5644190827      -31.7248471068  TIP3      6439            0.0000000000
     27894      6504  TIP3      OH2            12.2412981219      -17.0668110621      -33.8903729579  TIP3      6440            0.0000000000
     27895      6504  TIP3      H1             12.3060176090      -16.4048821174      -34.5854234966  TIP3      6440            0.0000000000
     27896      6504  TIP3      H2             12.0245635083      -17.8865397648      -34.3837723780  TIP3      6440            0.0000000000
     27897      6505  TIP3      OH2            11.3451911693      -15.6167042449      -28.1540855430  TIP3      6441            0.0000000000
     27898      6505  TIP3      H1             11.2157257865      -16.5734878652      -28.2403745645  TIP3      6441            0.0000000000
     27899      6505  TIP3      H2             11.0485966776      -15.4404669254      -27.2437683130  TIP3      6441            0.0000000000
     27900      6506  TIP3      OH2            -3.5923748171      -13.6326842248      -24.1088538202  TIP3      6442            0.0000000000
     27901      6506  TIP3      H1             -3.4944213514      -13.6374883661      -25.0942893691  TIP3      6442            0.0000000000
     27902      6506  TIP3      H2             -2.6791063079      -13.6700602415      -23.8400355243  TIP3      6442            0.0000000000
     27903      6507  TIP3      OH2            11.5055164283      -19.5498464178      -34.7215572889  TIP3      6443            0.0000000000
     27904      6507  TIP3      H1             12.0795946331      -20.0178197572      -34.0922162243  TIP3      6443            0.0000000000
     27905      6507  TIP3      H2             10.6374278688      -19.9713329637      -34.5909660033  TIP3      6443            0.0000000000
     27906      6508  TIP3      OH2            11.0015839339      -18.0382251077      -29.8009911371  TIP3      6444            0.0000000000
     27907      6508  TIP3      H1             11.3213910204      -18.9466418288      -29.6096186926  TIP3      6444            0.0000000000
     27908      6508  TIP3      H2             11.8324826423      -17.6290451754      -30.0800402295  TIP3      6444            0.0000000000
     27909      6509  TIP3      OH2            11.6215394892      -17.5273219720      -24.2531309725  TIP3      6445            0.0000000000
     27910      6509  TIP3      H1             12.5776764214      -17.3154017799      -24.3599559549  TIP3      6445            0.0000000000
     27911      6509  TIP3      H2             11.5084999714      -17.3484325950      -23.3160818950  TIP3      6445            0.0000000000
     27912      6510  TIP3      OH2            11.7288429776      -20.7804592658      -29.7011470580  TIP3      6446            0.0000000000
     27913      6510  TIP3      H1             11.9283523550      -21.1920969429      -28.8292735903  TIP3      6446            0.0000000000
     27914      6510  TIP3      H2             11.1008754586      -21.4273630435      -30.0859289204  TIP3      6446            0.0000000000
     27915      6511  TIP3      OH2            -2.8259976715      -19.9492320361      -25.1316325802  TIP3      6447            0.0000000000
     27916      6511  TIP3      H1             -2.3801136774      -20.7789378463      -24.8726186254  TIP3      6447            0.0000000000
     27917      6511  TIP3      H2             -2.2241229801      -19.2718063421      -24.7954429696  TIP3      6447            0.0000000000
     27918      6512  TIP3      OH2            -4.5502190802      -17.0176823920      -24.0954964995  TIP3      6448            0.0000000000
     27919      6512  TIP3      H1             -3.9933572192      -17.2437718387      -24.8638954122  TIP3      6448            0.0000000000
     27920      6512  TIP3      H2             -4.1241608458      -16.1893489375      -23.8428097423  TIP3      6448            0.0000000000
     27921      6513  TIP3      OH2            13.5680688364      -20.7442980470      -33.0300704851  TIP3      6449            0.0000000000
     27922      6513  TIP3      H1             13.8825548465      -21.4054688995      -33.6948260417  TIP3      6449            0.0000000000
     27923      6513  TIP3      H2             14.2208666690      -20.0325432941      -33.1120718918  TIP3      6449            0.0000000000
     27924      6514  TIP3      OH2            -4.2157918109      -20.5890235300      -29.9106927174  TIP3      6450            0.0000000000
     27925      6514  TIP3      H1             -5.1209028072      -20.4971841150      -30.2259489047  TIP3      6450            0.0000000000
     27926      6514  TIP3      H2             -3.7125987860      -20.1939577232      -30.6581914783  TIP3      6450            0.0000000000
     27927      6515  TIP3      OH2            10.5776255346       -5.7547753317      -28.0636685943  TIP3      6451            0.0000000000
     27928      6515  TIP3      H1             11.2666652702       -6.0265138049      -28.6988621365  TIP3      6451            0.0000000000
     27929      6515  TIP3      H2             11.0704406798       -5.2200646509      -27.4247080719  TIP3      6451            0.0000000000
     27930      6516  TIP3      OH2             5.4072209507       -5.1631050768      -23.0050402472  TIP3      6452            0.0000000000
     27931      6516  TIP3      H1              5.1215668650       -4.5547822658      -23.7010076685  TIP3      6452            0.0000000000
     27932      6516  TIP3      H2              5.6932734631       -4.5624942973      -22.3063529197  TIP3      6452            0.0000000000
     27933      6517  TIP3      OH2            -2.1545304824       -5.9648530074      -24.4104508928  TIP3      6453            0.0000000000
     27934      6517  TIP3      H1             -2.2593237592       -6.4206838994      -23.5487177263  TIP3      6453            0.0000000000
     27935      6517  TIP3      H2             -1.3266751769       -6.3703301969      -24.7391382010  TIP3      6453            0.0000000000
     27936      6518  TIP3      OH2            -0.0956106259       -7.2421051441      -25.6457332464  TIP3      6454            0.0000000000
     27937      6518  TIP3      H1             -0.2582586154       -8.1814398768      -25.4343053763  TIP3      6454            0.0000000000
     27938      6518  TIP3      H2              0.7796709177       -7.0863255180      -25.2411889117  TIP3      6454            0.0000000000
     27939      6519  TIP3      OH2             2.4671818031       -6.7553832395      -24.8444507814  TIP3      6455            0.0000000000
     27940      6519  TIP3      H1              2.6261420497       -7.6860756242      -25.0771405604  TIP3      6455            0.0000000000
     27941      6519  TIP3      H2              2.5506400344       -6.7701672007      -23.8900453100  TIP3      6455            0.0000000000
     27942      6520  TIP3      OH2             5.8652182362      -21.0038715172      -25.6143901254  TIP3      6456            0.0000000000
     27943      6520  TIP3      H1              5.2746383953      -21.7347392415      -25.3403881798  TIP3      6456            0.0000000000
     27944      6520  TIP3      H2              6.4814373738      -21.5172096384      -26.1617463221  TIP3      6456            0.0000000000
     27945      6521  TIP3      OH2            11.2951562908      -22.5766760144      -25.4169259236  TIP3      6457            0.0000000000
     27946      6521  TIP3      H1             11.7931356797      -22.3787222984      -26.2349961635  TIP3      6457            0.0000000000
     27947      6521  TIP3      H2             10.3747259993      -22.7268378437      -25.7249350402  TIP3      6457            0.0000000000
     27948      6522  TIP3      OH2            12.7798622808      -21.7657390134      -27.4396916051  TIP3      6458            0.0000000000
     27949      6522  TIP3      H1             13.4164862473      -22.4113855492      -27.7606879408  TIP3      6458            0.0000000000
     27950      6522  TIP3      H2             13.3241111608      -20.9589194936      -27.2856766992  TIP3      6458            0.0000000000
     27951      6523  TIP3      OH2            -1.7139699912      -22.5370543111      -27.8287952467  TIP3      6459            0.0000000000
     27952      6523  TIP3      H1             -2.4484573948      -22.6735005077      -28.4413770881  TIP3      6459            0.0000000000
     27953      6523  TIP3      H2             -1.2215040308      -23.3597847595      -27.9040096229  TIP3      6459            0.0000000000
     27954      6524  TIP3      OH2            -2.8160790484      -22.3184603929      -31.5243757897  TIP3      6460            0.0000000000
     27955      6524  TIP3      H1             -2.5453896560      -21.8673302890      -32.3404607668  TIP3      6460            0.0000000000
     27956      6524  TIP3      H2             -3.7209813885      -21.9999236557      -31.4179871115  TIP3      6460            0.0000000000
     27957      6525  TIP3      OH2             2.7838016388      -22.3763307079      -28.1023049322  TIP3      6461            0.0000000000
     27958      6525  TIP3      H1              3.7228911993      -22.1481684803      -28.1262470816  TIP3      6461            0.0000000000
     27959      6525  TIP3      H2              2.7415567770      -22.9390002875      -27.3105138618  TIP3      6461            0.0000000000
     27960      6526  TIP3      OH2             8.3663001803      -22.4782222668      -26.4558466052  TIP3      6462            0.0000000000
     27961      6526  TIP3      H1              8.5232243436      -22.4159826733      -27.4011049279  TIP3      6462            0.0000000000
     27962      6526  TIP3      H2              8.2249873217      -23.4283485855      -26.3205853449  TIP3      6462            0.0000000000
     27963      6527  TIP3      OH2             9.8568766833      -22.3903873396      -30.6858416491  TIP3      6463            0.0000000000
     27964      6527  TIP3      H1              9.0690541974      -21.8229374159      -30.8198384857  TIP3      6463            0.0000000000
     27965      6527  TIP3      H2              9.5422339281      -23.1564050495      -30.1914298198  TIP3      6463            0.0000000000
     27966      6528  TIP3      OH2            -3.0128952278       -6.7848808929      -31.0438113232  TIP3      6464            0.0000000000
     27967      6528  TIP3      H1             -3.6594846440       -6.8173549029      -31.7730797488  TIP3      6464            0.0000000000
     27968      6528  TIP3      H2             -3.0078139415       -5.8258026995      -30.9114272344  TIP3      6464            0.0000000000
     27969      6529  TIP3      OH2            -1.1396956786      -20.8488455043      -33.5858126603  TIP3      6465            0.0000000000
     27970      6529  TIP3      H1             -0.5592643464      -21.3902380313      -34.1411016942  TIP3      6465            0.0000000000
     27971      6529  TIP3      H2             -0.4891488491      -20.4763567456      -32.9582483007  TIP3      6465            0.0000000000
     27972      6530  TIP3      OH2             3.8125310117      -20.5515279373      -31.1605573653  TIP3      6466            0.0000000000
     27973      6530  TIP3      H1              4.2099160359      -21.0912542641      -30.4564076488  TIP3      6466            0.0000000000
     27974      6530  TIP3      H2              3.9931532033      -19.6699927850      -30.7768627101  TIP3      6466            0.0000000000
     27975      6531  TIP3      OH2             5.8833591191       -5.4378348979      -32.7580811710  TIP3      6467            0.0000000000
     27976      6531  TIP3      H1              6.8173395208       -5.2782886406      -32.9746047643  TIP3      6467            0.0000000000
     27977      6531  TIP3      H2              5.6569516593       -6.0023561386      -33.5274140561  TIP3      6467            0.0000000000
     27978      6532  TIP3      OH2            12.5376325100       -5.9864116305      -30.0031628244  TIP3      6468            0.0000000000
     27979      6532  TIP3      H1             12.3559035915       -6.7726949440      -30.5683872882  TIP3      6468            0.0000000000
     27980      6532  TIP3      H2             12.4764212755       -5.2537690120      -30.6534776843  TIP3      6468            0.0000000000
     27981      6533  TIP3      OH2            -1.2251031231       -5.7858709925      -34.1314655702  TIP3      6469            0.0000000000
     27982      6533  TIP3      H1             -1.4902261209       -5.5321389342      -33.2363413282  TIP3      6469            0.0000000000
     27983      6533  TIP3      H2             -0.4455456560       -6.3547174019      -33.9808455959  TIP3      6469            0.0000000000
     27984      6534  TIP3      OH2            17.4489791250      -14.4481088705      -22.8724482403  TIP3      6470            0.0000000000
     27985      6534  TIP3      H1             17.5673981936      -15.1465179200      -22.1997778717  TIP3      6470            0.0000000000
     27986      6534  TIP3      H2             18.1825702428      -13.8593586758      -22.6821131199  TIP3      6470            0.0000000000
     27987      6535  TIP3      OH2            18.3988766432       -9.9624656747      -24.4618163581  TIP3      6471            0.0000000000
     27988      6535  TIP3      H1             18.0744096037      -10.8341400799      -24.7605632133  TIP3      6471            0.0000000000
     27989      6535  TIP3      H2             19.3610679122      -10.1273563457      -24.4634692538  TIP3      6471            0.0000000000
     27990      6536  TIP3      OH2            15.0095438043      -16.4215489057      -28.9313188636  TIP3      6472            0.0000000000
     27991      6536  TIP3      H1             14.5619399942      -15.5634550533      -29.0235809204  TIP3      6472            0.0000000000
     27992      6536  TIP3      H2             14.4806320529      -16.9719105065      -29.5268704019  TIP3      6472            0.0000000000
     27993      6537  TIP3      OH2            15.7625069376      -14.1731994313      -26.7534137373  TIP3      6473            0.0000000000
     27994      6537  TIP3      H1             16.0367876307      -15.0137697289      -26.3392665277  TIP3      6473            0.0000000000
     27995      6537  TIP3      H2             16.4218538807      -14.0754320362      -27.4526523739  TIP3      6473            0.0000000000
     27996      6538  TIP3      OH2            19.5082611139      -19.0503556826      -26.4738556422  TIP3      6474            0.0000000000
     27997      6538  TIP3      H1             19.9135961573      -18.3166600675      -26.9864138708  TIP3      6474            0.0000000000
     27998      6538  TIP3      H2             19.3200519072      -19.7179542799      -27.1720584682  TIP3      6474            0.0000000000
     27999      6539  TIP3      OH2            16.3986284363      -16.7385210192      -25.7286144587  TIP3      6475            0.0000000000
     28000      6539  TIP3      H1             17.1083747725      -17.2609142076      -25.3155812155  TIP3      6475            0.0000000000
     28001      6539  TIP3      H2             16.5093574013      -17.0151343843      -26.6558025910  TIP3      6475            0.0000000000
     28002      6540  TIP3      OH2            21.5324081235      -15.1618627658      -26.3991600434  TIP3      6476            0.0000000000
     28003      6540  TIP3      H1             22.2078991362      -15.7499293482      -26.0087526244  TIP3      6476            0.0000000000
     28004      6540  TIP3      H2             21.0015536377      -15.8185876031      -26.8952334948  TIP3      6476            0.0000000000
     28005      6541  TIP3      OH2            18.5582070952      -20.2600029451      -22.4503085811  TIP3      6477            0.0000000000
     28006      6541  TIP3      H1             18.3898641093      -19.6164121698      -23.1879898407  TIP3      6477            0.0000000000
     28007      6541  TIP3      H2             17.9470762706      -19.9599659803      -21.7507366884  TIP3      6477            0.0000000000
     28008      6542  TIP3      OH2            18.1860958621      -18.3833037587      -24.3770689416  TIP3      6478            0.0000000000
     28009      6542  TIP3      H1             18.8345424084      -17.6914675982      -24.1089808342  TIP3      6478            0.0000000000
     28010      6542  TIP3      H2             18.6920025095      -18.7833038842      -25.1361990054  TIP3      6478            0.0000000000
     28011      6543  TIP3      OH2            15.7216099234      -11.0032607610      -30.6139249622  TIP3      6479            0.0000000000
     28012      6543  TIP3      H1             15.4830715850      -10.6099894293      -31.4728733846  TIP3      6479            0.0000000000
     28013      6543  TIP3      H2             15.8128479671      -10.2060417710      -30.0552052000  TIP3      6479            0.0000000000
     28014      6544  TIP3      OH2            22.8523079484      -22.7466436482      -24.7264788893  TIP3      6480            0.0000000000
     28015      6544  TIP3      H1             22.6482488672      -23.6569478085      -25.0037726573  TIP3      6480            0.0000000000
     28016      6544  TIP3      H2             21.9721985694      -22.3484664656      -24.7524048535  TIP3      6480            0.0000000000
     28017      6545  TIP3      OH2            19.9547851804      -13.2112229620      -27.6456230464  TIP3      6481            0.0000000000
     28018      6545  TIP3      H1             19.6640379772      -13.6234488289      -28.4909636926  TIP3      6481            0.0000000000
     28019      6545  TIP3      H2             20.5666126324      -13.8966456032      -27.2844498644  TIP3      6481            0.0000000000
     28020      6546  TIP3      OH2            21.2180336840       -9.9190687815      -24.8276922895  TIP3      6482            0.0000000000
     28021      6546  TIP3      H1             21.2375418955      -10.3061625254      -25.7181123093  TIP3      6482            0.0000000000
     28022      6546  TIP3      H2             22.1437880259      -10.0819353337      -24.5554326103  TIP3      6482            0.0000000000
     28023      6547  TIP3      OH2            20.3107675832      -14.4322280122      -23.9506171135  TIP3      6483            0.0000000000
     28024      6547  TIP3      H1             20.8347551172      -14.4726050542      -24.7846888646  TIP3      6483            0.0000000000
     28025      6547  TIP3      H2             20.8488081927      -13.8406902288      -23.4229723992  TIP3      6483            0.0000000000
     28026      6548  TIP3      OH2            18.9228627494      -14.2522843998      -30.0035617823  TIP3      6484            0.0000000000
     28027      6548  TIP3      H1             18.6620538283      -13.4538724193      -30.5078956999  TIP3      6484            0.0000000000
     28028      6548  TIP3      H2             18.2559277688      -14.8956108674      -30.2587734270  TIP3      6484            0.0000000000
     28029      6549  TIP3      OH2            15.0397232769      -11.8184366438      -21.2532367745  TIP3      6485            0.0000000000
     28030      6549  TIP3      H1             14.5702239783      -11.8709254264      -22.1113854952  TIP3      6485            0.0000000000
     28031      6549  TIP3      H2             15.0544910781      -12.7234035716      -20.9517856363  TIP3      6485            0.0000000000
     28032      6550  TIP3      OH2            14.8391454802       -8.9483736389      -24.4088525392  TIP3      6486            0.0000000000
     28033      6550  TIP3      H1             15.7453180570       -9.2505387235      -24.2567170731  TIP3      6486            0.0000000000
     28034      6550  TIP3      H2             14.7884101836       -8.2073014380      -23.8037731300  TIP3      6486            0.0000000000
     28035      6551  TIP3      OH2            18.1048640555       -6.1965222755      -28.1722159777  TIP3      6487            0.0000000000
     28036      6551  TIP3      H1             18.2278105432       -6.5850887395      -27.2768386099  TIP3      6487            0.0000000000
     28037      6551  TIP3      H2             17.2344507578       -6.5734461599      -28.4003773773  TIP3      6487            0.0000000000
     28038      6552  TIP3      OH2            19.9611437789      -21.4782590058      -24.3481221838  TIP3      6488            0.0000000000
     28039      6552  TIP3      H1             19.0875595381      -21.8516648609      -24.6272215739  TIP3      6488            0.0000000000
     28040      6552  TIP3      H2             19.6927920418      -20.9068836716      -23.6061608137  TIP3      6488            0.0000000000
     28041      6553  TIP3      OH2            19.9987764871      -17.0653081855      -23.0692416727  TIP3      6489            0.0000000000
     28042      6553  TIP3      H1             19.4011729323      -17.0417137776      -22.3017835048  TIP3      6489            0.0000000000
     28043      6553  TIP3      H2             20.0565115643      -16.1215975296      -23.2950925516  TIP3      6489            0.0000000000
     28044      6554  TIP3      OH2            20.0492528862      -16.8715474794      -28.1474101577  TIP3      6490            0.0000000000
     28045      6554  TIP3      H1             19.1107910511      -17.1499836975      -28.2057974763  TIP3      6490            0.0000000000
     28046      6554  TIP3      H2             20.4155925099      -17.2225083386      -28.9763020888  TIP3      6490            0.0000000000
     28047      6555  TIP3      OH2            17.7753051534      -16.7083762320      -21.1813530357  TIP3      6491            0.0000000000
     28048      6555  TIP3      H1             17.8203574305      -16.3955391144      -20.2736713744  TIP3      6491            0.0000000000
     28049      6555  TIP3      H2             17.3267018152      -17.5586503065      -21.0593729543  TIP3      6491            0.0000000000
     28050      6556  TIP3      OH2            20.9798834810      -19.5065509934      -34.3716015094  TIP3      6492            0.0000000000
     28051      6556  TIP3      H1             20.4834402079      -19.8390428751      -33.6019679132  TIP3      6492            0.0000000000
     28052      6556  TIP3      H2             20.3650974324      -18.9372646095      -34.8592584857  TIP3      6492            0.0000000000
     28053      6557  TIP3      OH2            14.4333106134      -19.6426952957      -27.2612290389  TIP3      6493            0.0000000000
     28054      6557  TIP3      H1             15.1640997609      -19.6834345776      -26.6157473679  TIP3      6493            0.0000000000
     28055      6557  TIP3      H2             14.8150770527      -20.0302761911      -28.0752886979  TIP3      6493            0.0000000000
     28056      6558  TIP3      OH2            15.6180318456      -18.9284362795      -31.9251273930  TIP3      6494            0.0000000000
     28057      6558  TIP3      H1             16.1621560659      -18.3538226525      -32.4940698349  TIP3      6494            0.0000000000
     28058      6558  TIP3      H2             14.9397457227      -18.2874105046      -31.6327185755  TIP3      6494            0.0000000000
     28059      6559  TIP3      OH2            22.1011702694      -19.0821476369      -26.9274015073  TIP3      6495            0.0000000000
     28060      6559  TIP3      H1             21.3060892600      -19.4609456270      -26.5139101684  TIP3      6495            0.0000000000
     28061      6559  TIP3      H2             22.7825430571      -19.2980778697      -26.2754692719  TIP3      6495            0.0000000000
     28062      6560  TIP3      OH2            17.4069668868      -17.7526047226      -28.2435970921  TIP3      6496            0.0000000000
     28063      6560  TIP3      H1             16.5232612461      -17.6443531446      -28.6453613458  TIP3      6496            0.0000000000
     28064      6560  TIP3      H2             17.6986659541      -18.6136040829      -28.6026070597  TIP3      6496            0.0000000000
     28065      6561  TIP3      OH2            21.1370479474      -17.7692513158      -30.5774882538  TIP3      6497            0.0000000000
     28066      6561  TIP3      H1             22.0427578009      -17.5117244586      -30.4426140352  TIP3      6497            0.0000000000
     28067      6561  TIP3      H2             20.7929861959      -17.1064848500      -31.2166772773  TIP3      6497            0.0000000000
     28068      6562  TIP3      OH2            19.8124976590      -16.6272468330      -33.0090700629  TIP3      6498            0.0000000000
     28069      6562  TIP3      H1             19.2107367764      -16.9534117332      -33.7026839411  TIP3      6498            0.0000000000
     28070      6562  TIP3      H2             20.5850959356      -16.3741952785      -33.5395146167  TIP3      6498            0.0000000000
     28071      6563  TIP3      OH2            18.9189826778      -20.4470360708      -28.7381624214  TIP3      6499            0.0000000000
     28072      6563  TIP3      H1             18.5223905889      -21.3400306893      -28.7274671942  TIP3      6499            0.0000000000
     28073      6563  TIP3      H2             19.6738761295      -20.5711531319      -29.3231714268  TIP3      6499            0.0000000000
     28074      6564  TIP3      OH2            22.3811017637      -18.5055451631      -22.5972322231  TIP3      6500            0.0000000000
     28075      6564  TIP3      H1             21.7742389874      -17.7789975723      -22.8172469113  TIP3      6500            0.0000000000
     28076      6564  TIP3      H2             23.0550352213      -18.0086842023      -22.1334777076  TIP3      6500            0.0000000000
     28077      6565  TIP3      OH2            22.9881534541      -12.1098870217      -31.2787458189  TIP3      6501            0.0000000000
     28078      6565  TIP3      H1             22.1323427155      -12.5649277348      -31.4097665377  TIP3      6501            0.0000000000
     28079      6565  TIP3      H2             22.9729263684      -11.9302060340      -30.3219293053  TIP3      6501            0.0000000000
     28080      6566  TIP3      OH2            18.3273268272      -12.6249296346      -25.2345715559  TIP3      6502            0.0000000000
     28081      6566  TIP3      H1             18.8770246350      -12.7101257745      -26.0388663499  TIP3      6502            0.0000000000
     28082      6566  TIP3      H2             18.3099554308      -13.5397467491      -24.9137790683  TIP3      6502            0.0000000000
     28083      6567  TIP3      OH2            20.6038442101       -9.1513854282      -27.8121148254  TIP3      6503            0.0000000000
     28084      6567  TIP3      H1             21.0904877585       -8.3783832604      -28.1379741698  TIP3      6503            0.0000000000
     28085      6567  TIP3      H2             19.7252469944       -8.9609081348      -28.1680939207  TIP3      6503            0.0000000000
     28086      6568  TIP3      OH2            16.4029658484      -14.3609591681      -33.3254522148  TIP3      6504            0.0000000000
     28087      6568  TIP3      H1             16.9592018424      -13.6801979204      -32.9078339527  TIP3      6504            0.0000000000
     28088      6568  TIP3      H2             15.4959328096      -14.0643139396      -33.1060969331  TIP3      6504            0.0000000000
     28089      6569  TIP3      OH2            21.9816944288      -11.4913734844      -28.4559886760  TIP3      6505            0.0000000000
     28090      6569  TIP3      H1             21.6620393405      -10.5941085411      -28.2523599789  TIP3      6505            0.0000000000
     28091      6569  TIP3      H2             21.3140270521      -12.0262466985      -27.9832638770  TIP3      6505            0.0000000000
     28092      6570  TIP3      OH2            22.4959782687       -7.2907071961      -21.9712968233  TIP3      6506            0.0000000000
     28093      6570  TIP3      H1             23.0964045119       -6.6103513428      -22.2825634727  TIP3      6506            0.0000000000
     28094      6570  TIP3      H2             23.0440047891       -7.7224174676      -21.2838195343  TIP3      6506            0.0000000000
     28095      6571  TIP3      OH2            20.7268331211       -6.4910099346      -28.8379104845  TIP3      6507            0.0000000000
     28096      6571  TIP3      H1             19.7451816797       -6.4661897755      -28.7262493640  TIP3      6507            0.0000000000
     28097      6571  TIP3      H2             20.9480048571       -5.6454786645      -28.4324122961  TIP3      6507            0.0000000000
     28098      6572  TIP3      OH2            16.5108222670       -7.6984831787      -22.0624217728  TIP3      6508            0.0000000000
     28099      6572  TIP3      H1             16.7401601114       -8.6379914207      -22.0246839654  TIP3      6508            0.0000000000
     28100      6572  TIP3      H2             16.8169258713       -7.4216893893      -21.1838947030  TIP3      6508            0.0000000000
     28101      6573  TIP3      OH2            22.3355809391       -9.1437701544      -34.8706146712  TIP3      6509            0.0000000000
     28102      6573  TIP3      H1             22.5820202761       -9.9407010824      -35.3570971197  TIP3      6509            0.0000000000
     28103      6573  TIP3      H2             22.0982906657       -9.5553327855      -34.0132343933  TIP3      6509            0.0000000000
     28104      6574  TIP3      OH2            21.2415603221       -9.6706968791      -32.3109483148  TIP3      6510            0.0000000000
     28105      6574  TIP3      H1             21.5577306567      -10.2197672369      -31.5828088662  TIP3      6510            0.0000000000
     28106      6574  TIP3      H2             21.3377327023       -8.7501520727      -31.9771400296  TIP3      6510            0.0000000000
     28107      6575  TIP3      OH2            17.8095475339      -12.4178362795      -31.8198935504  TIP3      6511            0.0000000000
     28108      6575  TIP3      H1             17.0876118215      -12.0070133841      -31.3047851051  TIP3      6511            0.0000000000
     28109      6575  TIP3      H2             18.2903809749      -11.6423089018      -32.1592678368  TIP3      6511            0.0000000000
     28110      6576  TIP3      OH2            21.3828944295       -6.9902581567      -31.6301647086  TIP3      6512            0.0000000000
     28111      6576  TIP3      H1             21.4916290639       -6.1807662339      -32.1936881946  TIP3      6512            0.0000000000
     28112      6576  TIP3      H2             21.1554350825       -6.6276359865      -30.7528030684  TIP3      6512            0.0000000000
     28113      6577  TIP3      OH2            19.9072353193      -20.1633454058      -32.0403317113  TIP3      6513            0.0000000000
     28114      6577  TIP3      H1             19.9562664874      -19.3048221706      -31.6025795841  TIP3      6513            0.0000000000
     28115      6577  TIP3      H2             20.8252582657      -20.4694244581      -31.8377158531  TIP3      6513            0.0000000000
     28116      6578  TIP3      OH2            18.3156993132       -9.8115928381      -32.9975366306  TIP3      6514            0.0000000000
     28117      6578  TIP3      H1             19.0248143600       -9.2417668931      -32.6539707508  TIP3      6514            0.0000000000
     28118      6578  TIP3      H2             18.8505469192      -10.2944364578      -33.6583362684  TIP3      6514            0.0000000000
     28119      6579  TIP3      OH2            16.6534609591      -17.1409192957      -33.8369827346  TIP3      6515            0.0000000000
     28120      6579  TIP3      H1             16.7068182172      -16.1912065208      -33.5970696474  TIP3      6515            0.0000000000
     28121      6579  TIP3      H2             15.7553025416      -17.2546100156      -34.1587537334  TIP3      6515            0.0000000000
     28122      6580  TIP3      OH2            17.4675368479      -22.1740857908      -25.2755566989  TIP3      6516            0.0000000000
     28123      6580  TIP3      H1             17.2455059532      -22.3012737535      -26.2236070669  TIP3      6516            0.0000000000
     28124      6580  TIP3      H2             17.1530539205      -23.0265964608      -24.8810755221  TIP3      6516            0.0000000000
     28125      6581  TIP3      OH2            16.4443431603       -8.4326804277      -28.9251450412  TIP3      6517            0.0000000000
     28126      6581  TIP3      H1             15.5744049678       -8.0203391840      -29.0083062920  TIP3      6517            0.0000000000
     28127      6581  TIP3      H2             16.8879473990       -7.9959295074      -29.6624418936  TIP3      6517            0.0000000000
     28128      6582  TIP3      OH2            19.8361423746      -11.7167451140      -34.6583319826  TIP3      6518            0.0000000000
     28129      6582  TIP3      H1             20.0263023431      -12.4179760079      -34.0219892787  TIP3      6518            0.0000000000
     28130      6582  TIP3      H2             20.6282675901      -11.7875736290      -35.2283723481  TIP3      6518            0.0000000000
     28131      6583  TIP3      OH2            21.0175582567      -13.6684645050      -32.1875191060  TIP3      6519            0.0000000000
     28132      6583  TIP3      H1             20.4971035488      -14.2298638120      -31.6002896031  TIP3      6519            0.0000000000
     28133      6583  TIP3      H2             21.3763455556      -14.2900884751      -32.8553438703  TIP3      6519            0.0000000000
     28134      6584  TIP3      OH2            22.1866106387      -15.3777621937      -34.0147077817  TIP3      6520            0.0000000000
     28135      6584  TIP3      H1             21.9462981425      -15.5930107722      -34.9371613848  TIP3      6520            0.0000000000
     28136      6584  TIP3      H2             23.1491398527      -15.3982996170      -34.0557249890  TIP3      6520            0.0000000000
     28137      6585  TIP3      OH2            21.1783020412      -20.3183484918      -21.2826041036  TIP3      6521            0.0000000000
     28138      6585  TIP3      H1             21.6374354610      -19.6114141792      -21.7943419282  TIP3      6521            0.0000000000
     28139      6585  TIP3      H2             20.2859954968      -20.1598036611      -21.6293262592  TIP3      6521            0.0000000000
     28140      6586  TIP3      OH2            22.6830168718      -14.6238301642      -21.2223495182  TIP3      6522            0.0000000000
     28141      6586  TIP3      H1             23.5117083601      -14.8104051232      -21.6562304500  TIP3      6522            0.0000000000
     28142      6586  TIP3      H2             22.4762782663      -13.7257200682      -21.4039935255  TIP3      6522            0.0000000000
     28143      6587  TIP3      OH2            22.0468333377       -4.6971418493      -32.9097255648  TIP3      6523            0.0000000000
     28144      6587  TIP3      H1             23.0074937209       -4.6377730535      -32.9234525147  TIP3      6523            0.0000000000
     28145      6587  TIP3      H2             21.8908836657       -4.1505043933      -33.6987764474  TIP3      6523            0.0000000000
     28146      6588  TIP3      OH2            15.5436263247      -10.1605000089      -33.4491317078  TIP3      6524            0.0000000000
     28147      6588  TIP3      H1             16.5127040856      -10.0553975999      -33.2909516245  TIP3      6524            0.0000000000
     28148      6588  TIP3      H2             15.5743991146      -10.7837586426      -34.2157588191  TIP3      6524            0.0000000000
     28149      6589  TIP3      OH2            14.3451672161       -4.7768657299      -28.5205039011  TIP3      6525            0.0000000000
     28150      6589  TIP3      H1             13.6241543850       -5.2796218390      -28.9634118733  TIP3      6525            0.0000000000
     28151      6589  TIP3      H2             14.6353864748       -5.4098179815      -27.8365724332  TIP3      6525            0.0000000000
     28152      6590  TIP3      OH2            15.1417687821       -6.6305672460      -26.6552451158  TIP3      6526            0.0000000000
     28153      6590  TIP3      H1             14.8356052494       -7.5173048929      -26.4209983298  TIP3      6526            0.0000000000
     28154      6590  TIP3      H2             15.4468249235       -6.2828442779      -25.7957053869  TIP3      6526            0.0000000000
     28155      6591  TIP3      OH2            15.2416079322      -13.4958548552      -24.1169070555  TIP3      6527            0.0000000000
     28156      6591  TIP3      H1             15.3748405734      -13.6211990551      -25.0807034459  TIP3      6527            0.0000000000
     28157      6591  TIP3      H2             16.1111297169      -13.7558445881      -23.7631816318  TIP3      6527            0.0000000000
     28158      6592  TIP3      OH2            16.0470668993      -19.9382580814      -25.1191059349  TIP3      6528            0.0000000000
     28159      6592  TIP3      H1             16.5165265539      -20.7584819243      -24.8786950950  TIP3      6528            0.0000000000
     28160      6592  TIP3      H2             16.6281184732      -19.2452358708      -24.7705966591  TIP3      6528            0.0000000000
     28161      6593  TIP3      OH2            14.3115086453      -17.0023621291      -24.0454477781  TIP3      6529            0.0000000000
     28162      6593  TIP3      H1             14.8703340892      -17.2454515137      -24.8121428127  TIP3      6529            0.0000000000
     28163      6593  TIP3      H2             14.7395068318      -16.1538598775      -23.8501405512  TIP3      6529            0.0000000000
     28164      6594  TIP3      OH2            14.6620269834      -20.5378821327      -29.9002809977  TIP3      6530            0.0000000000
     28165      6594  TIP3      H1             13.7328177618      -20.5323312994      -30.1827243243  TIP3      6530            0.0000000000
     28166      6594  TIP3      H2             15.1147566981      -20.1836339352      -30.6932302482  TIP3      6530            0.0000000000
     28167      6595  TIP3      OH2            14.8282243445      -21.7519130109      -21.6598996768  TIP3      6531            0.0000000000
     28168      6595  TIP3      H1             14.1945987907      -22.2522777453      -21.1397701044  TIP3      6531            0.0000000000
     28169      6595  TIP3      H2             14.3173377866      -21.2279240138      -22.3042275971  TIP3      6531            0.0000000000
     28170      6596  TIP3      OH2            19.7226823856       -7.8224200233      -21.3171953841  TIP3      6532            0.0000000000
     28171      6596  TIP3      H1             19.3461836372       -6.9831433820      -21.5799400782  TIP3      6532            0.0000000000
     28172      6596  TIP3      H2             20.6789756020       -7.7257685364      -21.4874354692  TIP3      6532            0.0000000000
     28173      6597  TIP3      OH2            17.1356192305       -4.6505433218      -21.2750951988  TIP3      6533            0.0000000000
     28174      6597  TIP3      H1             16.4836808447       -4.0424881936      -21.6693139002  TIP3      6533            0.0000000000
     28175      6597  TIP3      H2             16.8363830779       -4.6850493933      -20.3660718752  TIP3      6533            0.0000000000
     28176      6598  TIP3      OH2            16.6909211985       -6.0088033654      -24.4052621289  TIP3      6534            0.0000000000
     28177      6598  TIP3      H1             16.6232293132       -6.4107857926      -23.5153378482  TIP3      6534            0.0000000000
     28178      6598  TIP3      H2             17.5393447466       -6.3449422667      -24.7438497071  TIP3      6534            0.0000000000
     28179      6599  TIP3      OH2            18.7676347208       -7.2472444369      -25.7234376116  TIP3      6535            0.0000000000
     28180      6599  TIP3      H1             18.6287498907       -8.1858147874      -25.4884879596  TIP3      6535            0.0000000000
     28181      6599  TIP3      H2             19.6127527042       -7.0823082525      -25.2811307578  TIP3      6535            0.0000000000
     28182      6600  TIP3      OH2            21.4002495303       -6.7648916201      -24.7976610546  TIP3      6536            0.0000000000
     28183      6600  TIP3      H1             21.4838276520       -7.6872106361      -25.1032988186  TIP3      6536            0.0000000000
     28184      6600  TIP3      H2             21.3562162014       -6.8603525021      -23.8362228185  TIP3      6536            0.0000000000
     28185      6601  TIP3      OH2            17.1408692077      -22.5611122568      -27.8246235812  TIP3      6537            0.0000000000
     28186      6601  TIP3      H1             16.4061067519      -22.7039877644      -28.4314522057  TIP3      6537            0.0000000000
     28187      6601  TIP3      H2             17.6381639908      -23.3843517351      -27.8875643382  TIP3      6537            0.0000000000
     28188      6602  TIP3      OH2            16.0434554766      -22.3024710268      -31.5123705573  TIP3      6538            0.0000000000
     28189      6602  TIP3      H1             16.3047173320      -21.8783259384      -32.3433476047  TIP3      6538            0.0000000000
     28190      6602  TIP3      H2             15.1293703468      -22.0041134805      -31.4199748636  TIP3      6538            0.0000000000
     28191      6603  TIP3      OH2            21.6731855166      -22.3478703440      -28.1674909384  TIP3      6539            0.0000000000
     28192      6603  TIP3      H1             22.5911700681      -22.0928988513      -28.0547037312  TIP3      6539            0.0000000000
     28193      6603  TIP3      H2             21.5416096615      -22.9017453526      -27.3701752955  TIP3      6539            0.0000000000
     28194      6604  TIP3      OH2            15.8351641347       -6.7912973598      -31.0406107600  TIP3      6540            0.0000000000
     28195      6604  TIP3      H1             15.1931143781       -6.8190572450      -31.7738341797  TIP3      6540            0.0000000000
     28196      6604  TIP3      H2             15.8481486008       -5.8318641486      -30.9127604193  TIP3      6540            0.0000000000
     28197      6605  TIP3      OH2            17.7489585563      -20.8356792923      -33.6006273780  TIP3      6541            0.0000000000
     28198      6605  TIP3      H1             18.3340591392      -21.3616356111      -34.1633854993  TIP3      6541            0.0000000000
     28199      6605  TIP3      H2             18.4036317569      -20.4595409491      -32.9750549097  TIP3      6541            0.0000000000
     28200      6606  TIP3      OH2            22.4045056985      -20.4604626259      -31.5414645426  TIP3      6542            0.0000000000
     28201      6606  TIP3      H1             22.7547399310      -21.1629837859      -30.9800380438  TIP3      6542            0.0000000000
     28202      6606  TIP3      H2             22.7185050588      -19.6792878525      -31.0804090165  TIP3      6542            0.0000000000
     28203      6607  TIP3      OH2            17.6479757182       -5.7903339555      -34.1425257005  TIP3      6543            0.0000000000
     28204      6607  TIP3      H1             17.3719852890       -5.5370658355      -33.2493708636  TIP3      6543            0.0000000000
     28205      6607  TIP3      H2             18.4335002779       -6.3504696478      -33.9781167737  TIP3      6543            0.0000000000
     28206      6608  TIP3      OH2           -11.4315304509        5.5318009884      -27.9875445812  TIP3      6544            0.0000000000
     28207      6608  TIP3      H1            -11.4877164046        6.5150589239      -27.9702936739  TIP3      6544            0.0000000000
     28208      6608  TIP3      H2            -12.1744807928        5.3010590966      -28.5648495477  TIP3      6544            0.0000000000
     28209      6609  TIP3      OH2           -12.5168423166        4.7207915032      -24.4754957863  TIP3      6545            0.0000000000
     28210      6609  TIP3      H1            -12.6530819985        4.1315307913      -23.7235524837  TIP3      6545            0.0000000000
     28211      6609  TIP3      H2            -12.9548115975        4.2551884962      -25.2079316845  TIP3      6545            0.0000000000
     28212      6610  TIP3      OH2           -20.0642029199        4.3342501718      -22.9553811742  TIP3      6546            0.0000000000
     28213      6610  TIP3      H1            -20.2323007063        3.8216561790      -22.1575069255  TIP3      6546            0.0000000000
     28214      6610  TIP3      H2            -19.4362947200        5.0061016354      -22.6615010616  TIP3      6546            0.0000000000
     28215      6611  TIP3      OH2            -8.8883466984        7.7136755982      -26.1763891365  TIP3      6547            0.0000000000
     28216      6611  TIP3      H1             -9.3763256776        7.0121256040      -25.7356018881  TIP3      6547            0.0000000000
     28217      6611  TIP3      H2             -8.9667829603        8.4401265404      -25.5448321641  TIP3      6547            0.0000000000
     28218      6612  TIP3      OH2           -19.3436725898        8.9332418643      -24.5663987122  TIP3      6548            0.0000000000
     28219      6612  TIP3      H1            -19.6438161391        8.0055031785      -24.6763239205  TIP3      6548            0.0000000000
     28220      6612  TIP3      H2            -18.4161545603        8.7703124287      -24.3405838018  TIP3      6548            0.0000000000
     28221      6613  TIP3      OH2           -22.5857077221        2.4485051557      -29.1165073126  TIP3      6549            0.0000000000
     28222      6613  TIP3      H1            -22.9998535757        3.3032709277      -28.8902351803  TIP3      6549            0.0000000000
     28223      6613  TIP3      H2            -23.3107368920        1.8885156661      -29.3453644294  TIP3      6549            0.0000000000
     28224      6614  TIP3      OH2           -22.0260430004        4.5181894493      -26.9299495122  TIP3      6550            0.0000000000
     28225      6614  TIP3      H1            -21.7252422337        3.8294777158      -26.2945636341  TIP3      6550            0.0000000000
     28226      6614  TIP3      H2            -21.2142949428        4.8122246303      -27.3521494490  TIP3      6550            0.0000000000
     28227      6615  TIP3      OH2           -11.7929733702       12.8946334063      -25.9172057006  TIP3      6551            0.0000000000
     28228      6615  TIP3      H1            -11.1500385457       12.2347860716      -26.2760292042  TIP3      6551            0.0000000000
     28229      6615  TIP3      H2            -11.9716494076       12.4754951418      -25.0728802184  TIP3      6551            0.0000000000
     28230      6616  TIP3      OH2           -14.1868124723        7.2018894436      -24.0061376185  TIP3      6552            0.0000000000
     28231      6616  TIP3      H1            -13.8834966582        6.5383043157      -24.6364464630  TIP3      6552            0.0000000000
     28232      6616  TIP3      H2            -13.4070658015        7.2789501279      -23.4460220403  TIP3      6552            0.0000000000
     28233      6617  TIP3      OH2            -5.5778562992       -1.1732849098      -23.2357708728  TIP3      6553            0.0000000000
     28234      6617  TIP3      H1             -5.5229018408       -0.5488482901      -22.5172568490  TIP3      6553            0.0000000000
     28235      6617  TIP3      H2             -5.0642815746       -0.7163595640      -23.9062402951  TIP3      6553            0.0000000000
     28236      6618  TIP3      OH2           -11.1581125077        1.5895424624      -23.6513104141  TIP3      6554            0.0000000000
     28237      6618  TIP3      H1            -10.8433976977        0.6749991523      -23.7445464696  TIP3      6554            0.0000000000
     28238      6618  TIP3      H2            -11.1606686253        1.8154728795      -24.6073770642  TIP3      6554            0.0000000000
     28239      6619  TIP3      OH2           -17.9270477346       -0.2903689374      -26.5054189986  TIP3      6555            0.0000000000
     28240      6619  TIP3      H1            -17.8740278039        0.5683507280      -26.9673604681  TIP3      6555            0.0000000000
     28241      6619  TIP3      H2            -18.3653753369       -0.8349726432      -27.1947613474  TIP3      6555            0.0000000000
     28242      6620  TIP3      OH2           -10.2213568322       -0.2079609175      -28.1188973414  TIP3      6556            0.0000000000
     28243      6620  TIP3      H1             -9.5982247463       -0.5249041308      -27.4246062361  TIP3      6556            0.0000000000
     28244      6620  TIP3      H2             -9.6437405189        0.3983205736      -28.6023028172  TIP3      6556            0.0000000000
     28245      6621  TIP3      OH2           -21.2534728903        2.1808614488      -25.7211255710  TIP3      6557            0.0000000000
     28246      6621  TIP3      H1            -20.6769428980        1.5807363693      -25.2327357070  TIP3      6557            0.0000000000
     28247      6621  TIP3      H2            -21.2444337046        1.7890062502      -26.6018321074  TIP3      6557            0.0000000000
     28248      6622  TIP3      OH2           -16.1922350502        3.6774262090      -26.3892798135  TIP3      6558            0.0000000000
     28249      6622  TIP3      H1            -15.5018925776        3.1059821522      -26.0122673217  TIP3      6558            0.0000000000
     28250      6622  TIP3      H2            -16.6745789428        3.0261181047      -26.9350486408  TIP3      6558            0.0000000000
     28251      6623  TIP3      OH2           -11.7857053758        8.0751179197      -28.8739093766  TIP3      6559            0.0000000000
     28252      6623  TIP3      H1            -11.9870428523        7.8515119931      -29.7945839142  TIP3      6559            0.0000000000
     28253      6623  TIP3      H2            -12.0688160220        9.0138787639      -28.8130919472  TIP3      6559            0.0000000000
     28254      6624  TIP3      OH2            -8.4544958234       -0.8526835849      -26.0777594894  TIP3      6560            0.0000000000
     28255      6624  TIP3      H1             -8.5834725366       -1.6184617102      -25.5071138349  TIP3      6560            0.0000000000
     28256      6624  TIP3      H2             -7.7323087928       -0.4048997503      -25.5966369104  TIP3      6560            0.0000000000
     28257      6625  TIP3      OH2           -19.4556248335        0.4275051117      -24.3699471958  TIP3      6561            0.0000000000
     28258      6625  TIP3      H1            -18.8821024962        1.1607329006      -24.0683697518  TIP3      6561            0.0000000000
     28259      6625  TIP3      H2            -18.9466500434        0.0592555482      -25.1182043777  TIP3      6561            0.0000000000
     28260      6626  TIP3      OH2           -21.5558489689        8.1578675959      -30.6688638499  TIP3      6562            0.0000000000
     28261      6626  TIP3      H1            -22.2717952084        8.0729985116      -31.3326578852  TIP3      6562            0.0000000000
     28262      6626  TIP3      H2            -21.9210999441        8.7815650334      -30.0302123289  TIP3      6562            0.0000000000
     28263      6627  TIP3      OH2           -15.1209927397       -3.9712717128      -24.9984526392  TIP3      6563            0.0000000000
     28264      6627  TIP3      H1            -15.1849979497       -4.9388800258      -25.0617657120  TIP3      6563            0.0000000000
     28265      6627  TIP3      H2            -16.0118604103       -3.7373810572      -24.6669080797  TIP3      6563            0.0000000000
     28266      6628  TIP3      OH2           -10.1683329433       11.3667865657      -27.3072275733  TIP3      6564            0.0000000000
     28267      6628  TIP3      H1             -9.7175843151       10.6188375725      -27.7497932438  TIP3      6564            0.0000000000
     28268      6628  TIP3      H2             -9.6231067253       12.1291513372      -27.5879484099  TIP3      6564            0.0000000000
     28269      6629  TIP3      OH2            -8.8858702512        9.2693774198      -28.7170763771  TIP3      6565            0.0000000000
     28270      6629  TIP3      H1             -9.2155855921        8.5732827988      -29.3112326192  TIP3      6565            0.0000000000
     28271      6629  TIP3      H2             -8.8689940928        8.7776395698      -27.8764398252  TIP3      6565            0.0000000000
     28272      6630  TIP3      OH2           -12.8051251493        4.7389489581      -30.4715771508  TIP3      6566            0.0000000000
     28273      6630  TIP3      H1            -13.4858516448        5.3373751805      -30.8374179125  TIP3      6566            0.0000000000
     28274      6630  TIP3      H2            -12.0812296733        4.8492257439      -31.1157608788  TIP3      6566            0.0000000000
     28275      6631  TIP3      OH2           -12.6930072813        3.3625283518      -33.4700292167  TIP3      6567            0.0000000000
     28276      6631  TIP3      H1            -11.9921264110        3.3611706617      -32.7974839093  TIP3      6567            0.0000000000
     28277      6631  TIP3      H2            -12.4074082285        2.6034897946      -33.9953567168  TIP3      6567            0.0000000000
     28278      6632  TIP3      OH2            -5.3789481051        4.1794644551      -22.1541526172  TIP3      6568            0.0000000000
     28279      6632  TIP3      H1             -6.0163379989        4.9057155883      -22.0502139954  TIP3      6568            0.0000000000
     28280      6632  TIP3      H2             -4.9257164426        4.4449772583      -22.9640005430  TIP3      6568            0.0000000000
     28281      6633  TIP3      OH2            -9.3202062750        4.9340687740      -29.5454285166  TIP3      6569            0.0000000000
     28282      6633  TIP3      H1            -10.0598616584        5.1951299952      -28.9519394664  TIP3      6569            0.0000000000
     28283      6633  TIP3      H2             -8.8339604215        4.2910883557      -28.9986240391  TIP3      6569            0.0000000000
     28284      6634  TIP3      OH2           -17.7153343405        5.6211256238      -27.6169377472  TIP3      6570            0.0000000000
     28285      6634  TIP3      H1            -18.0830055038        5.2144333039      -28.4353190519  TIP3      6570            0.0000000000
     28286      6634  TIP3      H2            -17.1289126940        4.9150814970      -27.2734741216  TIP3      6570            0.0000000000
     28287      6635  TIP3      OH2           -16.3479743336        9.1067426499      -24.9601894979  TIP3      6571            0.0000000000
     28288      6635  TIP3      H1            -16.4318784121        8.5058913924      -25.7138755099  TIP3      6571            0.0000000000
     28289      6635  TIP3      H2            -15.6346062810        8.6579504095      -24.4740055883  TIP3      6571            0.0000000000
     28290      6636  TIP3      OH2           -17.3460173817        4.3359829555      -23.9596187191  TIP3      6572            0.0000000000
     28291      6636  TIP3      H1            -16.8580367075        4.4765265836      -24.7937403708  TIP3      6572            0.0000000000
     28292      6636  TIP3      H2            -17.0429914180        5.0506638247      -23.3802692770  TIP3      6572            0.0000000000
     28293      6637  TIP3      OH2           -10.9517543640        9.9393750805      -23.1944480163  TIP3      6573            0.0000000000
     28294      6637  TIP3      H1            -11.2420128363       10.5545953888      -22.5328795021  TIP3      6573            0.0000000000
     28295      6637  TIP3      H2            -11.2535139147        9.0664582700      -22.8517790768  TIP3      6573            0.0000000000
     28296      6638  TIP3      OH2           -10.4512137133        4.1919662776      -31.8983235013  TIP3      6574            0.0000000000
     28297      6638  TIP3      H1             -9.9078460817        4.3530043169      -31.0886746400  TIP3      6574            0.0000000000
     28298      6638  TIP3      H2             -9.9733084290        4.6752953047      -32.6120886710  TIP3      6574            0.0000000000
     28299      6639  TIP3      OH2           -12.6924087806       10.8926660105      -28.5462410113  TIP3      6575            0.0000000000
     28300      6639  TIP3      H1            -12.3463284219       11.1496503303      -27.6783325471  TIP3      6575            0.0000000000
     28301      6639  TIP3      H2            -13.3082325986       11.6180318214      -28.7217904556  TIP3      6575            0.0000000000
     28302      6640  TIP3      OH2            -6.7193587673       -4.1017460703      -31.9308746780  TIP3      6576            0.0000000000
     28303      6640  TIP3      H1             -7.6790331920       -4.0151703140      -31.7347813576  TIP3      6576            0.0000000000
     28304      6640  TIP3      H2             -6.5352251027       -3.2705643222      -32.4037010929  TIP3      6576            0.0000000000
     28305      6641  TIP3      OH2           -18.7348593399        4.6389182233      -29.9762661438  TIP3      6577            0.0000000000
     28306      6641  TIP3      H1            -19.0478895257        5.4104486995      -30.4985112056  TIP3      6577            0.0000000000
     28307      6641  TIP3      H2            -19.3598186045        3.9540273641      -30.2227266960  TIP3      6577            0.0000000000
     28308      6642  TIP3      OH2            -5.6347305473       10.2675894574      -33.5675494712  TIP3      6578            0.0000000000
     28309      6642  TIP3      H1             -5.3796450105       11.2005617166      -33.4725960940  TIP3      6578            0.0000000000
     28310      6642  TIP3      H2             -4.7377855542        9.8767853535      -33.6000927233  TIP3      6578            0.0000000000
     28311      6643  TIP3      OH2           -22.6999127295        6.8885026528      -21.0822649589  TIP3      6579            0.0000000000
     28312      6643  TIP3      H1            -22.9831039351        7.0123541242      -21.9969172346  TIP3      6579            0.0000000000
     28313      6643  TIP3      H2            -22.5402024569        5.9569822903      -21.0164169535  TIP3      6579            0.0000000000
     28314      6644  TIP3      OH2           -22.8259489447        9.9755105453      -24.5160227807  TIP3      6580            0.0000000000
     28315      6644  TIP3      H1            -21.9804672273        9.5641809021      -24.2693851732  TIP3      6580            0.0000000000
     28316      6644  TIP3      H2            -23.0092180181       10.4857230625      -23.7085141869  TIP3      6580            0.0000000000
     28317      6645  TIP3      OH2           -13.1445335699       13.7889862950      -30.0273217650  TIP3      6581            0.0000000000
     28318      6645  TIP3      H1            -13.4157691126       13.7230566201      -30.9625091221  TIP3      6581            0.0000000000
     28319      6645  TIP3      H2            -13.2885797057       14.7352562253      -29.8220386351  TIP3      6581            0.0000000000
     28320      6646  TIP3      OH2           -19.6176750213       12.6632923701      -28.1838142384  TIP3      6582            0.0000000000
     28321      6646  TIP3      H1            -19.4892388445       12.2589081669      -27.2985420505  TIP3      6582            0.0000000000
     28322      6646  TIP3      H2            -20.4631389866       12.2376611952      -28.4131969701  TIP3      6582            0.0000000000
     28323      6647  TIP3      OH2           -10.2981948519       13.0605340700      -33.0613136426  TIP3      6583            0.0000000000
     28324      6647  TIP3      H1             -9.9589123895       12.2511118015      -33.5200704757  TIP3      6583            0.0000000000
     28325      6647  TIP3      H2            -10.4340188990       12.7789239193      -32.1289086222  TIP3      6583            0.0000000000
     28326      6648  TIP3      OH2           -10.4845995547       12.8850354002      -30.2763611904  TIP3      6584            0.0000000000
     28327      6648  TIP3      H1            -11.4416223956       13.0566419345      -30.0955575192  TIP3      6584            0.0000000000
     28328      6648  TIP3      H2            -10.3511008023       12.1936946474      -29.6035573047  TIP3      6584            0.0000000000
     28329      6649  TIP3      OH2           -20.2878329508        8.3020977831      -20.2086198841  TIP3      6585            0.0000000000
     28330      6649  TIP3      H1            -20.1182764307        8.0327000707      -19.3069538806  TIP3      6585            0.0000000000
     28331      6649  TIP3      H2            -21.2197491959        8.0863705078      -20.4236927270  TIP3      6585            0.0000000000
     28332      6650  TIP3      OH2           -17.7063167912       -3.0918660100      -24.2615417044  TIP3      6586            0.0000000000
     28333      6650  TIP3      H1            -18.6157293589       -3.2343890687      -24.6262402072  TIP3      6586            0.0000000000
     28334      6650  TIP3      H2            -17.8523401890       -2.2768240156      -23.7767283406  TIP3      6586            0.0000000000
     28335      6651  TIP3      OH2            -9.0114010722        5.2369292546      -33.9827780997  TIP3      6587            0.0000000000
     28336      6651  TIP3      H1             -9.0781148123        5.0263601548      -34.9418680894  TIP3      6587            0.0000000000
     28337      6651  TIP3      H2             -8.1442969077        5.6676892518      -33.9963983048  TIP3      6587            0.0000000000
     28338      6652  TIP3      OH2           -13.4331237000       -0.8548025061      -33.5558332345  TIP3      6588            0.0000000000
     28339      6652  TIP3      H1            -13.7566873404       -0.9382637128      -32.6425615632  TIP3      6588            0.0000000000
     28340      6652  TIP3      H2            -13.7267127930       -1.7306389790      -33.8762809080  TIP3      6588            0.0000000000
     28341      6653  TIP3      OH2           -17.5791438032        1.8147103721      -22.9862282341  TIP3      6589            0.0000000000
     28342      6653  TIP3      H1            -18.2789256990        1.8652358506      -22.3229458081  TIP3      6589            0.0000000000
     28343      6653  TIP3      H2            -17.5741956548        2.7384261114      -23.3297104673  TIP3      6589            0.0000000000
     28344      6654  TIP3      OH2           -17.6184829722        1.9523642896      -28.1040010846  TIP3      6590            0.0000000000
     28345      6654  TIP3      H1            -18.5787211247        1.7281063178      -28.1995231882  TIP3      6590            0.0000000000
     28346      6654  TIP3      H2            -17.3029163533        1.6428643093      -28.9737733684  TIP3      6590            0.0000000000
     28347      6655  TIP3      OH2           -12.1084631462        2.4711919006      -29.2967632433  TIP3      6591            0.0000000000
     28348      6655  TIP3      H1            -12.5054505401        3.2852839442      -29.6866774969  TIP3      6591            0.0000000000
     28349      6655  TIP3      H2            -11.4476479496        2.2685132250      -29.9821611775  TIP3      6591            0.0000000000
     28350      6656  TIP3      OH2           -11.1067182957        1.9288878771      -26.4311770889  TIP3      6592            0.0000000000
     28351      6656  TIP3      H1            -11.3940040558        2.5227192610      -27.1516843081  TIP3      6592            0.0000000000
     28352      6656  TIP3      H2            -10.9867062435        1.1168891739      -26.9583665507  TIP3      6592            0.0000000000
     28353      6657  TIP3      OH2           -16.6473729393       -0.5211306089      -34.4325936311  TIP3      6593            0.0000000000
     28354      6657  TIP3      H1            -17.1101300696       -0.9330739227      -33.6724931079  TIP3      6593            0.0000000000
     28355      6657  TIP3      H2            -17.3501869438       -0.0786430963      -34.9240706166  TIP3      6593            0.0000000000
     28356      6658  TIP3      OH2           -22.0999037981       -0.6922889687      -27.5610979231  TIP3      6594            0.0000000000
     28357      6658  TIP3      H1            -22.3852069282       -0.8663715065      -26.6507737073  TIP3      6594            0.0000000000
     28358      6658  TIP3      H2            -22.7292315705       -1.2257397338      -28.0624639832  TIP3      6594            0.0000000000
     28359      6659  TIP3      OH2           -22.0143957203        0.0183028868      -31.8091518780  TIP3      6595            0.0000000000
     28360      6659  TIP3      H1            -21.4761585887        0.4867589796      -32.4828878039  TIP3      6595            0.0000000000
     28361      6659  TIP3      H2            -22.7400970553        0.6224303680      -31.6926737497  TIP3      6595            0.0000000000
     28362      6660  TIP3      OH2           -11.9630687177        3.5448558346      -21.8449391891  TIP3      6596            0.0000000000
     28363      6660  TIP3      H1            -11.5185642868        2.9526683728      -22.4854634190  TIP3      6596            0.0000000000
     28364      6660  TIP3      H2            -12.3875403674        2.9205030827      -21.2673601068  TIP3      6596            0.0000000000
     28365      6661  TIP3      OH2           -15.0490375704       -0.4363597062      -27.1006901344  TIP3      6597            0.0000000000
     28366      6661  TIP3      H1            -15.9963342321       -0.4772409711      -26.8641955907  TIP3      6597            0.0000000000
     28367      6661  TIP3      H2            -14.6096739978       -0.7014275915      -26.2797886170  TIP3      6597            0.0000000000
     28368      6662  TIP3      OH2           -20.1374063360        1.1346559320      -28.3406044994  TIP3      6598            0.0000000000
     28369      6662  TIP3      H1            -21.0912434238        1.2141154403      -28.5491098789  TIP3      6598            0.0000000000
     28370      6662  TIP3      H2            -20.0069736420        0.1974519678      -28.5788155613  TIP3      6598            0.0000000000
     28371      6663  TIP3      OH2           -16.6465165111        1.1200892528      -30.5949068706  TIP3      6599            0.0000000000
     28372      6663  TIP3      H1            -15.6891352323        1.2264367309      -30.4503107898  TIP3      6599            0.0000000000
     28373      6663  TIP3      H2            -16.8891524039        1.8084725886      -31.2395307075  TIP3      6599            0.0000000000
     28374      6664  TIP3      OH2           -10.6974688501       -1.2203506788      -23.7704851219  TIP3      6600            0.0000000000
     28375      6664  TIP3      H1            -11.4624160015       -1.2485222298      -23.2140968615  TIP3      6600            0.0000000000
     28376      6664  TIP3      H2            -11.0819118738       -1.5220736330      -24.6132688514  TIP3      6600            0.0000000000
     28377      6665  TIP3      OH2           -17.9522694830        2.3183905738      -33.0317824982  TIP3      6601            0.0000000000
     28378      6665  TIP3      H1            -18.4403124485        1.8851033893      -33.7481354037  TIP3      6601            0.0000000000
     28379      6665  TIP3      H2            -17.1122358605        2.5090454872      -33.4817871719  TIP3      6601            0.0000000000
     28380      6666  TIP3      OH2           -13.8524714614        2.2602038886      -25.1997072185  TIP3      6602            0.0000000000
     28381      6666  TIP3      H1            -13.2196176954        1.7708392156      -25.7442399973  TIP3      6602            0.0000000000
     28382      6666  TIP3      H2            -13.9297080543        1.7253993655      -24.4079983489  TIP3      6602            0.0000000000
     28383      6667  TIP3      OH2           -18.8408334079       -1.5742823640      -28.8082512492  TIP3      6603            0.0000000000
     28384      6667  TIP3      H1            -19.1481903464       -2.4941494911      -28.7265878791  TIP3      6603            0.0000000000
     28385      6667  TIP3      H2            -18.0142607437       -1.6864057101      -29.2951343088  TIP3      6603            0.0000000000
     28386      6668  TIP3      OH2           -14.5778098324        6.8157696415      -31.0765653021  TIP3      6604            0.0000000000
     28387      6668  TIP3      H1            -15.3811584711        6.3607086895      -31.4230294051  TIP3      6604            0.0000000000
     28388      6668  TIP3      H2            -14.8373399142        6.9773593865      -30.1462187071  TIP3      6604            0.0000000000
     28389      6669  TIP3      OH2            -7.4537884708        6.0939372334      -22.2234555480  TIP3      6605            0.0000000000
     28390      6669  TIP3      H1             -6.8315525411        6.5022172747      -22.8536297618  TIP3      6605            0.0000000000
     28391      6669  TIP3      H2             -8.2261570749        5.9876935375      -22.8061914214  TIP3      6605            0.0000000000
     28392      6670  TIP3      OH2           -10.7792976968       -0.3879420791      -32.8952727619  TIP3      6606            0.0000000000
     28393      6670  TIP3      H1            -11.7221721093       -0.2061847281      -33.0530795295  TIP3      6606            0.0000000000
     28394      6670  TIP3      H2            -10.4235900936        0.4605000072      -32.5491822428  TIP3      6606            0.0000000000
     28395      6671  TIP3      OH2           -10.0367415660        1.5826463090      -31.3302525566  TIP3      6607            0.0000000000
     28396      6671  TIP3      H1             -9.1787984071        1.4365070690      -30.8793244866  TIP3      6607            0.0000000000
     28397      6671  TIP3      H2             -9.8974259961        2.4112538925      -31.8205011730  TIP3      6607            0.0000000000
     28398      6672  TIP3      OH2           -19.1932780962        6.3177848360      -25.3291136697  TIP3      6608            0.0000000000
     28399      6672  TIP3      H1            -18.7406414145        6.0530974482      -26.1330657901  TIP3      6608            0.0000000000
     28400      6672  TIP3      H2            -19.4875419732        5.4767226994      -24.9238159321  TIP3      6608            0.0000000000
     28401      6673  TIP3      OH2           -12.4932618440        8.3013525261      -32.0455731920  TIP3      6609            0.0000000000
     28402      6673  TIP3      H1            -12.8769379321        9.1330902939      -31.6963675884  TIP3      6609            0.0000000000
     28403      6673  TIP3      H2            -13.2047900257        7.6589872886      -31.8246645194  TIP3      6609            0.0000000000
     28404      6674  TIP3      OH2            -5.1203908310        1.6677919233      -31.5124898749  TIP3      6610            0.0000000000
     28405      6674  TIP3      H1             -5.6914545210        1.4171802787      -32.2657312168  TIP3      6610            0.0000000000
     28406      6674  TIP3      H2             -5.0424622685        2.6257522480      -31.7262973958  TIP3      6610            0.0000000000
     28407      6675  TIP3      OH2            -6.8460363237       10.4264931524      -31.1316291548  TIP3      6611            0.0000000000
     28408      6675  TIP3      H1             -7.1322084034        9.5964372642      -30.7259248071  TIP3      6611            0.0000000000
     28409      6675  TIP3      H2             -6.4029637779       10.1501199809      -31.9598658402  TIP3      6611            0.0000000000
     28410      6676  TIP3      OH2            -9.6193056963        5.3421915762      -23.9541200273  TIP3      6612            0.0000000000
     28411      6676  TIP3      H1            -10.5525418590        5.1592472730      -24.1692435342  TIP3      6612            0.0000000000
     28412      6676  TIP3      H2             -9.2015898516        4.6039056675      -24.4412307116  TIP3      6612            0.0000000000
     28413      6677  TIP3      OH2           -17.0825962549        9.6869571526      -27.8982162808  TIP3      6613            0.0000000000
     28414      6677  TIP3      H1            -16.5988149648       10.5017912207      -28.0982506461  TIP3      6613            0.0000000000
     28415      6677  TIP3      H2            -17.9672583950        9.9020352974      -28.2263152019  TIP3      6613            0.0000000000
     28416      6678  TIP3      OH2           -21.5257083707        4.5773042786      -33.3691324710  TIP3      6614            0.0000000000
     28417      6678  TIP3      H1            -20.7922392838        5.0983261752      -32.9612641976  TIP3      6614            0.0000000000
     28418      6678  TIP3      H2            -22.2803642825        4.9849576686      -32.9302479662  TIP3      6614            0.0000000000
     28419      6679  TIP3      OH2           -15.7167891214        7.3529512015      -28.4542783918  TIP3      6615            0.0000000000
     28420      6679  TIP3      H1            -16.0377708799        8.2572992092      -28.2850877698  TIP3      6615            0.0000000000
     28421      6679  TIP3      H2            -16.3933405445        6.8274412438      -27.9815071438  TIP3      6615            0.0000000000
     28422      6680  TIP3      OH2           -16.9919152288       12.3330244608      -28.9171790014  TIP3      6616            0.0000000000
     28423      6680  TIP3      H1            -17.9574495401       12.4481949383      -28.7362407664  TIP3      6616            0.0000000000
     28424      6680  TIP3      H2            -16.6275830060       13.1573735627      -28.5443101106  TIP3      6616            0.0000000000
     28425      6681  TIP3      OH2           -11.6739860761        7.5285667682      -22.3282430964  TIP3      6617            0.0000000000
     28426      6681  TIP3      H1            -12.1279755320        7.2486831063      -21.5359049015  TIP3      6617            0.0000000000
     28427      6681  TIP3      H2            -11.1120326677        6.7748904485      -22.5713217897  TIP3      6617            0.0000000000
     28428      6682  TIP3      OH2            -9.3223393285        8.6735030849      -33.2401554562  TIP3      6618            0.0000000000
     28429      6682  TIP3      H1             -9.0506008417        8.1022092614      -32.4877605353  TIP3      6618            0.0000000000
     28430      6682  TIP3      H2            -10.2649632652        8.4120634834      -33.2334734790  TIP3      6618            0.0000000000
     28431      6683  TIP3      OH2            -4.9571274743       12.9600298867      -32.9885687665  TIP3      6619            0.0000000000
     28432      6683  TIP3      H1             -4.2314533944       13.5738500026      -33.2430716751  TIP3      6619            0.0000000000
     28433      6683  TIP3      H2             -5.6137248210       13.6378632884      -32.7408768684  TIP3      6619            0.0000000000
     28434      6684  TIP3      OH2            -8.5954133280        7.2522860956      -31.0158695852  TIP3      6620            0.0000000000
     28435      6684  TIP3      H1             -8.8566149725        6.4537486807      -30.5109936721  TIP3      6620            0.0000000000
     28436      6684  TIP3      H2             -7.6332410653        7.2255696233      -30.8704090698  TIP3      6620            0.0000000000
     28437      6685  TIP3      OH2           -20.4377865416       11.3434628370      -22.2523880821  TIP3      6621            0.0000000000
     28438      6685  TIP3      H1            -20.7409134517       10.4134759917      -22.2018916120  TIP3      6621            0.0000000000
     28439      6685  TIP3      H2            -20.7542504661       11.5515020466      -21.3561204506  TIP3      6621            0.0000000000
     28440      6686  TIP3      OH2           -15.2131477748        9.6850142347      -34.7475146605  TIP3      6622            0.0000000000
     28441      6686  TIP3      H1            -15.1557877923        8.9299630496      -35.3582867090  TIP3      6622            0.0000000000
     28442      6686  TIP3      H2            -15.7167542119        9.2576534965      -34.0205839155  TIP3      6622            0.0000000000
     28443      6687  TIP3      OH2           -16.5378974185        9.1802981257      -32.3033429414  TIP3      6623            0.0000000000
     28444      6687  TIP3      H1            -16.1706989438        8.6744189067      -31.5653035628  TIP3      6623            0.0000000000
     28445      6687  TIP3      H2            -16.4257791935       10.1052728561      -31.9823276272  TIP3      6623            0.0000000000
     28446      6688  TIP3      OH2           -19.9095630909        6.4261329485      -31.8472526742  TIP3      6624            0.0000000000
     28447      6688  TIP3      H1            -20.6446985118        6.8669722516      -31.3563570310  TIP3      6624            0.0000000000
     28448      6688  TIP3      H2            -19.4074040981        7.2141757859      -32.1319614428  TIP3      6624            0.0000000000
     28449      6689  TIP3      OH2           -11.3813617669       -1.3276079837      -30.4156602462  TIP3      6625            0.0000000000
     28450      6689  TIP3      H1            -11.1470623277       -0.8925096558      -31.2590670439  TIP3      6625            0.0000000000
     28451      6689  TIP3      H2            -10.7844584886       -0.8705538072      -29.8091689302  TIP3      6625            0.0000000000
     28452      6690  TIP3      OH2           -13.6389860113       10.8613741678      -31.6268068579  TIP3      6626            0.0000000000
     28453      6690  TIP3      H1            -14.4767695618       11.3625718045      -31.5412978356  TIP3      6626            0.0000000000
     28454      6690  TIP3      H2            -13.1408807318       11.4302700261      -32.2231730565  TIP3      6626            0.0000000000
     28455      6691  TIP3      OH2           -14.1125329524        0.4214330700      -29.6133579655  TIP3      6627            0.0000000000
     28456      6691  TIP3      H1            -13.3641182646        1.0397773299      -29.5405380712  TIP3      6627            0.0000000000
     28457      6691  TIP3      H2            -14.4102809359        0.2929925606      -28.6919182225  TIP3      6627            0.0000000000
     28458      6692  TIP3      OH2           -13.2903577778       -2.5207032862      -28.7680418722  TIP3      6628            0.0000000000
     28459      6692  TIP3      H1            -13.6274898109       -1.8681489028      -28.1349291348  TIP3      6628            0.0000000000
     28460      6692  TIP3      H2            -12.5772147452       -1.9741805774      -29.1839942587  TIP3      6628            0.0000000000
     28461      6693  TIP3      OH2           -16.2236798598       11.8618804599      -31.5912914502  TIP3      6629            0.0000000000
     28462      6693  TIP3      H1            -16.1397616243       12.6667622242      -32.1593929638  TIP3      6629            0.0000000000
     28463      6693  TIP3      H2            -16.5440438483       12.2489536313      -30.7421723218  TIP3      6629            0.0000000000
     28464      6694  TIP3      OH2           -17.6072269315       -1.3904799578      -32.0249339934  TIP3      6630            0.0000000000
     28465      6694  TIP3      H1            -17.6728046151       -0.5061461304      -31.6125288213  TIP3      6630            0.0000000000
     28466      6694  TIP3      H2            -16.7034694397       -1.6442323271      -31.7479323458  TIP3      6630            0.0000000000
     28467      6695  TIP3      OH2            -8.8029248050        3.1486677013      -25.6136893437  TIP3      6631            0.0000000000
     28468      6695  TIP3      H1             -9.6124186251        2.6607695071      -25.8598084575  TIP3      6631            0.0000000000
     28469      6695  TIP3      H2             -8.2831016366        2.4870312677      -25.1013057730  TIP3      6631            0.0000000000
     28470      6696  TIP3      OH2           -19.3623845610        9.0591152155      -32.9789374089  TIP3      6632            0.0000000000
     28471      6696  TIP3      H1            -18.6839061064        9.6595412239      -32.6463620097  TIP3      6632            0.0000000000
     28472      6696  TIP3      H2            -18.8526365289        8.5586209662      -33.6373208692  TIP3      6632            0.0000000000
     28473      6697  TIP3      OH2           -21.0928291049        1.7528141638      -33.8558865604  TIP3      6633            0.0000000000
     28474      6697  TIP3      H1            -21.1002052483        2.6786519989      -33.5719853148  TIP3      6633            0.0000000000
     28475      6697  TIP3      H2            -21.9688094749        1.5506329452      -34.1872394130  TIP3      6633            0.0000000000
     28476      6698  TIP3      OH2            -7.7689837190       12.3920845441      -23.8750007850  TIP3      6634            0.0000000000
     28477      6698  TIP3      H1             -7.8733384509       13.0840008138      -24.5513306610  TIP3      6634            0.0000000000
     28478      6698  TIP3      H2             -6.8211350981       12.4903567225      -23.7160317521  TIP3      6634            0.0000000000
     28479      6699  TIP3      OH2           -20.2061082764       -3.5365817820      -25.0727661263  TIP3      6635            0.0000000000
     28480      6699  TIP3      H1            -20.3862553175       -3.4438221808      -26.0351109509  TIP3      6635            0.0000000000
     28481      6699  TIP3      H2            -20.6584503158       -4.3845014290      -24.8991454602  TIP3      6635            0.0000000000
     28482      6700  TIP3      OH2           -21.2687366529       10.4770457841      -28.8629234266  TIP3      6636            0.0000000000
     28483      6700  TIP3      H1            -22.1284200953       10.8885061968      -28.9875627031  TIP3      6636            0.0000000000
     28484      6700  TIP3      H2            -20.8288698952       10.8066935118      -29.6524781563  TIP3      6636            0.0000000000
     28485      6701  TIP3      OH2           -13.1861152637       11.5133646872      -34.5997986327  TIP3      6637            0.0000000000
     28486      6701  TIP3      H1            -13.9238681635       10.8762723225      -34.4501639167  TIP3      6637            0.0000000000
     28487      6701  TIP3      H2            -12.5301000694       10.8863275663      -34.9360141002  TIP3      6637            0.0000000000
     28488      6702  TIP3      OH2            -8.5696346641       11.3191522799      -34.3233905983  TIP3      6638            0.0000000000
     28489      6702  TIP3      H1             -8.4049476313       10.4008186528      -34.0333647578  TIP3      6638            0.0000000000
     28490      6702  TIP3      H2             -7.9637079539       11.4111404299      -35.0853642802  TIP3      6638            0.0000000000
     28491      6703  TIP3      OH2           -17.8536675332        7.1688863031      -34.7360655238  TIP3      6639            0.0000000000
     28492      6703  TIP3      H1            -17.6920128166        6.4678031608      -34.0860172753  TIP3      6639            0.0000000000
     28493      6703  TIP3      H2            -17.0408558195        7.0844080634      -35.2729297746  TIP3      6639            0.0000000000
     28494      6704  TIP3      OH2           -12.3645942190        8.3239630286      -34.8678677195  TIP3      6640            0.0000000000
     28495      6704  TIP3      H1            -12.6306222241        8.3810987280      -33.9330058957  TIP3      6640            0.0000000000
     28496      6704  TIP3      H2            -12.5411803878        7.3670688658      -35.0362028156  TIP3      6640            0.0000000000
     28497      6705  TIP3      OH2           -16.5773332310        5.2216235279      -32.1781160683  TIP3      6641            0.0000000000
     28498      6705  TIP3      H1            -17.1215660405        4.6662033285      -31.5953923776  TIP3      6641            0.0000000000
     28499      6705  TIP3      H2            -16.2651346401        4.5644332913      -32.8374794798  TIP3      6641            0.0000000000
     28500      6706  TIP3      OH2           -15.5541004207        3.4620731706      -34.0201144972  TIP3      6642            0.0000000000
     28501      6706  TIP3      H1            -15.6814914484        3.3896191347      -34.9865649642  TIP3      6642            0.0000000000
     28502      6706  TIP3      H2            -14.5748798643        3.4737170217      -33.9379899429  TIP3      6642            0.0000000000
     28503      6707  TIP3      OH2            -6.2452075243        5.7525182844      -34.6230831191  TIP3      6643            0.0000000000
     28504      6707  TIP3      H1             -6.3793046864        5.3880522383      -35.5186221676  TIP3      6643            0.0000000000
     28505      6707  TIP3      H2             -6.1243624869        6.7162294618      -34.7954463533  TIP3      6643            0.0000000000
     28506      6708  TIP3      OH2           -15.7072160240       14.1514776584      -32.9142614774  TIP3      6644            0.0000000000
     28507      6708  TIP3      H1            -14.7380155246       14.2039528328      -32.8563139598  TIP3      6644            0.0000000000
     28508      6708  TIP3      H2            -15.8379836905       14.7142834031      -33.6906805620  TIP3      6644            0.0000000000
     28509      6709  TIP3      OH2           -22.0373036722        8.8310341607      -33.5087432297  TIP3      6645            0.0000000000
     28510      6709  TIP3      H1            -21.0989143417        8.8462972956      -33.2237695404  TIP3      6645            0.0000000000
     28511      6709  TIP3      H2            -22.0342250647        8.0942393235      -34.1380152358  TIP3      6645            0.0000000000
     28512      6710  TIP3      OH2            23.5943329124       13.8487768708      -28.7622452975  TIP3      6646            0.0000000000
     28513      6710  TIP3      H1             22.6707186063       13.6524028085      -28.9337177271  TIP3      6646            0.0000000000
     28514      6710  TIP3      H2             23.7238233328       13.4471003596      -27.8703120410  TIP3      6646            0.0000000000
     28515      6711  TIP3      OH2           -22.5405924618       12.2654287186      -26.6250225078  TIP3      6647            0.0000000000
     28516      6711  TIP3      H1            -22.7978051203       11.3542321375      -26.3884072371  TIP3      6647            0.0000000000
     28517      6711  TIP3      H2            -22.3032028897       12.6309576050      -25.7499561924  TIP3      6647            0.0000000000
     28518      6712  TIP3      OH2            -4.9557408362       12.9677496394      -23.6420158745  TIP3      6648            0.0000000000
     28519      6712  TIP3      H1             -5.0554848344       13.2467413262      -22.7295493368  TIP3      6648            0.0000000000
     28520      6712  TIP3      H2             -4.3301420112       13.6253717592      -23.9692161024  TIP3      6648            0.0000000000
     28521      6713  TIP3      OH2            -5.6652067174        6.6767978246      -30.6768702722  TIP3      6649            0.0000000000
     28522      6713  TIP3      H1             -4.7995467426        7.0723802624      -30.4759056006  TIP3      6649            0.0000000000
     28523      6713  TIP3      H2             -5.6973966406        5.9845276239      -29.9837809413  TIP3      6649            0.0000000000
     28524      6714  TIP3      OH2            -5.3307999067        4.7748432533      -28.7566610549  TIP3      6650            0.0000000000
     28525      6714  TIP3      H1             -6.0841030646        4.2715411352      -28.3734121566  TIP3      6650            0.0000000000
     28526      6714  TIP3      H2             -4.7280321619        4.8688209435      -27.9901293541  TIP3      6650            0.0000000000
     28527      6715  TIP3      OH2            -5.5984779990        7.4114649459      -23.8579948948  TIP3      6651            0.0000000000
     28528      6715  TIP3      H1             -4.7611291973        7.0041322060      -24.1354960584  TIP3      6651            0.0000000000
     28529      6715  TIP3      H2             -5.4234465920        8.3474196116      -24.0745969838  TIP3      6651            0.0000000000
     28530      6716  TIP3      OH2            -5.0141892056        4.5759683475      -32.3758632864  TIP3      6652            0.0000000000
     28531      6716  TIP3      H1             -5.5969045897        4.8837377906      -33.0993504550  TIP3      6652            0.0000000000
     28532      6716  TIP3      H2             -5.1389640667        5.2960267712      -31.7271363690  TIP3      6652            0.0000000000
     28533      6717  TIP3      OH2            -6.6080465350        1.7827753795      -33.8769444354  TIP3      6653            0.0000000000
     28534      6717  TIP3      H1             -6.5485539035        2.4440965535      -34.5760003074  TIP3      6653            0.0000000000
     28535      6717  TIP3      H2             -6.8198407996        0.9634563808      -34.3660686813  TIP3      6653            0.0000000000
     28536      6718  TIP3      OH2            -7.5000565841        3.2193204014      -28.1450072636  TIP3      6654            0.0000000000
     28537      6718  TIP3      H1             -7.6365448751        2.2669446655      -28.2374722673  TIP3      6654            0.0000000000
     28538      6718  TIP3      H2             -7.8007365815        3.3929351150      -27.2310625567  TIP3      6654            0.0000000000
     28539      6719  TIP3      OH2           -21.6929671965        5.9784790839      -24.5398669978  TIP3      6655            0.0000000000
     28540      6719  TIP3      H1            -22.2637796997        5.4287259941      -25.1271456105  TIP3      6655            0.0000000000
     28541      6719  TIP3      H2            -21.6374137245        5.3085440494      -23.8363194715  TIP3      6655            0.0000000000
     28542      6720  TIP3      OH2            -7.3765335585       -0.7153334029      -34.7324753634  TIP3      6656            0.0000000000
     28543      6720  TIP3      H1             -6.7985097927       -1.1747738334      -34.0921664250  TIP3      6656            0.0000000000
     28544      6720  TIP3      H2             -8.2458701993       -1.1196230568      -34.5942930979  TIP3      6656            0.0000000000
     28545      6721  TIP3      OH2            -7.8667509288        0.8110955970      -29.7946912160  TIP3      6657            0.0000000000
     28546      6721  TIP3      H1             -7.5511310291       -0.1075466465      -29.6232720292  TIP3      6657            0.0000000000
     28547      6721  TIP3      H2             -7.0322413566        1.2125298176      -30.0741632886  TIP3      6657            0.0000000000
     28548      6722  TIP3      OH2            -7.1908318336        1.3288253731      -24.3452452865  TIP3      6658            0.0000000000
     28549      6722  TIP3      H1             -6.2349110167        1.5570440895      -24.3327422574  TIP3      6658            0.0000000000
     28550      6722  TIP3      H2             -7.3514301355        1.5071867447      -23.3900247258  TIP3      6658            0.0000000000
     28551      6723  TIP3      OH2            -7.2549934409        2.1605467058      -21.7962380422  TIP3      6659            0.0000000000
     28552      6723  TIP3      H1             -7.8401378972        2.3129526709      -21.0539369632  TIP3      6659            0.0000000000
     28553      6723  TIP3      H2             -6.5755778386        2.8626951374      -21.6648739056  TIP3      6659            0.0000000000
     28554      6724  TIP3      OH2            -7.1370175058       -1.8964744927      -29.6896112827  TIP3      6660            0.0000000000
     28555      6724  TIP3      H1             -6.9036857924       -2.3139307091      -28.8294306411  TIP3      6660            0.0000000000
     28556      6724  TIP3      H2             -7.7202270081       -2.5599898432      -30.1109315371  TIP3      6660            0.0000000000
     28557      6725  TIP3      OH2           -21.7254082320       -1.1260668683      -24.9338550610  TIP3      6661            0.0000000000
     28558      6725  TIP3      H1            -21.1841571934       -1.9233990260      -24.8101982000  TIP3      6661            0.0000000000
     28559      6725  TIP3      H2            -21.1014225983       -0.4135242407      -24.7131275994  TIP3      6661            0.0000000000
     28560      6726  TIP3      OH2            -5.3366820047       -1.8694325915      -33.1372482595  TIP3      6662            0.0000000000
     28561      6726  TIP3      H1             -4.9344169575       -2.5774786329      -33.6867492310  TIP3      6662            0.0000000000
     28562      6726  TIP3      H2             -4.6186647932       -1.2196855383      -33.0787243076  TIP3      6662            0.0000000000
     28563      6727  TIP3      OH2           -22.6428322676       -1.9907433483      -29.8051166648  TIP3      6663            0.0000000000
     28564      6727  TIP3      H1            -23.5730736792       -1.7641817478      -29.6969924035  TIP3      6663            0.0000000000
     28565      6727  TIP3      H2            -22.3489817236       -1.3963665361      -30.5332289161  TIP3      6663            0.0000000000
     28566      6728  TIP3      OH2            -8.2901109303       13.1276688593      -28.1219476642  TIP3      6664            0.0000000000
     28567      6728  TIP3      H1             -7.5434816235       12.8333608025      -28.6723954450  TIP3      6664            0.0000000000
     28568      6728  TIP3      H2             -7.8395066118       13.6116391631      -27.3984914290  TIP3      6664            0.0000000000
     28569      6729  TIP3      OH2            23.9247137904       -2.8631662810      -21.9388507777  TIP3      6665            0.0000000000
     28570      6729  TIP3      H1             23.3409530953       -3.0751211105      -21.1760773616  TIP3      6665            0.0000000000
     28571      6729  TIP3      H2             23.3542423755       -2.3021780946      -22.4887361901  TIP3      6665            0.0000000000
     28572      6730  TIP3      OH2           -17.8538263242       10.9744127182      -21.3066871640  TIP3      6666            0.0000000000
     28573      6730  TIP3      H1            -18.3543835082       11.7639023213      -21.5525693757  TIP3      6666            0.0000000000
     28574      6730  TIP3      H2            -16.9755384585       11.1830181414      -21.5707728579  TIP3      6666            0.0000000000
     28575      6731  TIP3      OH2           -20.5410136181       14.2988000521      -21.2686689847  TIP3      6667            0.0000000000
     28576      6731  TIP3      H1            -21.3204492088       14.7106005581      -21.6669136356  TIP3      6667            0.0000000000
     28577      6731  TIP3      H2            -20.8682628256       14.0715584939      -20.3867783928  TIP3      6667            0.0000000000
     28578      6732  TIP3      OH2           -18.0291777566       13.8870451510      -22.2141657775  TIP3      6668            0.0000000000
     28579      6732  TIP3      H1            -18.8989452932       14.0297624805      -21.7688225964  TIP3      6668            0.0000000000
     28580      6732  TIP3      H2            -18.0872133147       14.4322313366      -23.0096682779  TIP3      6668            0.0000000000
     28581      6733  TIP3      OH2           -21.0361775874       12.9216816628      -24.4081063384  TIP3      6669            0.0000000000
     28582      6733  TIP3      H1            -21.0420410639       12.4648265528      -23.5354359050  TIP3      6669            0.0000000000
     28583      6733  TIP3      H2            -20.2265070995       12.5109162840      -24.7676361031  TIP3      6669            0.0000000000
     28584      6734  TIP3      OH2           -19.0096654738       11.5446196374      -25.7105979194  TIP3      6670            0.0000000000
     28585      6734  TIP3      H1            -19.1632910568       10.6236075705      -25.3972055043  TIP3      6670            0.0000000000
     28586      6734  TIP3      H2            -18.1672127366       11.7500562309      -25.2657354820  TIP3      6670            0.0000000000
     28587      6735  TIP3      OH2           -16.3156776245       12.0840793666      -24.8148596340  TIP3      6671            0.0000000000
     28588      6735  TIP3      H1            -16.2350887315       11.1451340777      -25.0751079868  TIP3      6671            0.0000000000
     28589      6735  TIP3      H2            -16.4208510590       12.0225327556      -23.8540750430  TIP3      6671            0.0000000000
     28590      6736  TIP3      OH2           -12.8650254852       -2.2594707972      -25.6268263289  TIP3      6672            0.0000000000
     28591      6736  TIP3      H1            -13.5859853507       -2.8649670172      -25.3800170773  TIP3      6672            0.0000000000
     28592      6736  TIP3      H2            -12.3963257260       -2.7848909781      -26.2919539551  TIP3      6672            0.0000000000
     28593      6737  TIP3      OH2            -7.7670682648       -4.2117310633      -25.6099112609  TIP3      6673            0.0000000000
     28594      6737  TIP3      H1             -7.1594267346       -3.6187812375      -26.1163672415  TIP3      6673            0.0000000000
     28595      6737  TIP3      H2             -8.6470044312       -3.8533715117      -25.8503147421  TIP3      6673            0.0000000000
     28596      6738  TIP3      OH2            -6.1319104781       -2.9411699419      -27.3608649631  TIP3      6674            0.0000000000
     28597      6738  TIP3      H1             -5.4378402064       -3.5313951988      -27.7331758580  TIP3      6674            0.0000000000
     28598      6738  TIP3      H2             -5.6049642719       -2.1158115337      -27.2400280964  TIP3      6674            0.0000000000
     28599      6739  TIP3      OH2           -20.5046229803       -3.6749286075      -27.8315064863  TIP3      6675            0.0000000000
     28600      6739  TIP3      H1            -21.2995875664       -3.8077753218      -28.3792464626  TIP3      6675            0.0000000000
     28601      6739  TIP3      H2            -20.0514478177       -4.5375317185      -27.9232966413  TIP3      6675            0.0000000000
     28602      6740  TIP3      OH2           -21.6814030860       -3.9160314686      -32.0818778083  TIP3      6676            0.0000000000
     28603      6740  TIP3      H1            -21.2957130803       -3.2534657730      -32.6801594243  TIP3      6676            0.0000000000
     28604      6740  TIP3      H2            -22.2796747132       -3.3527485287      -31.5753888310  TIP3      6676            0.0000000000
     28605      6741  TIP3      OH2           -16.0926896721       -3.7255724710      -27.9885782747  TIP3      6677            0.0000000000
     28606      6741  TIP3      H1            -15.2042848199       -3.3674795602      -28.1602698928  TIP3      6677            0.0000000000
     28607      6741  TIP3      H2            -16.0586189366       -3.9043129340      -27.0476553626  TIP3      6677            0.0000000000
     28608      6742  TIP3      OH2           -10.3047081358       -3.6916559996      -26.3915788676  TIP3      6678            0.0000000000
     28609      6742  TIP3      H1            -10.3938808400       -3.5439025721      -27.3396787741  TIP3      6678            0.0000000000
     28610      6742  TIP3      H2            -10.7466760916       -4.5644403958      -26.2901299413  TIP3      6678            0.0000000000
     28611      6743  TIP3      OH2            -9.0949959203       -3.6642934953      -30.7313224390  TIP3      6679            0.0000000000
     28612      6743  TIP3      H1             -9.8519043131       -3.0781574923      -30.8823486455  TIP3      6679            0.0000000000
     28613      6743  TIP3      H2             -9.5250078020       -4.5131440618      -30.4658423141  TIP3      6679            0.0000000000
     28614      6744  TIP3      OH2           -21.8203157343       12.1293098480      -31.0588383408  TIP3      6680            0.0000000000
     28615      6744  TIP3      H1            -22.5084565710       12.0610941924      -31.7332900573  TIP3      6680            0.0000000000
     28616      6744  TIP3      H2            -21.7992855173       13.0931604463      -30.9570463347  TIP3      6680            0.0000000000
     28617      6745  TIP3      OH2           -19.9198862003       -1.9130232438      -33.6082881979  TIP3      6681            0.0000000000
     28618      6745  TIP3      H1            -19.3977394022       -2.5535856544      -34.1171370385  TIP3      6681            0.0000000000
     28619      6745  TIP3      H2            -19.2458488253       -1.6248924349      -32.9673032561  TIP3      6681            0.0000000000
     28620      6746  TIP3      OH2           -14.9405572660       -1.7158464346      -31.1916351324  TIP3      6682            0.0000000000
     28621      6746  TIP3      H1            -14.6554782391       -2.2661785547      -30.4443214511  TIP3      6682            0.0000000000
     28622      6746  TIP3      H2            -14.8150468252       -0.8307153619      -30.7808068801  TIP3      6682            0.0000000000
     28623      6747  TIP3      OH2           -12.9737740960       13.4109215599      -32.7473384731  TIP3      6683            0.0000000000
     28624      6747  TIP3      H1            -12.0656137469       13.6154007360      -33.0171503800  TIP3      6683            0.0000000000
     28625      6747  TIP3      H2            -13.2362729988       12.8604127035      -33.5150742701  TIP3      6683            0.0000000000
     28626      6748  TIP3      OH2            -6.3967610392       12.8622667676      -30.0035909444  TIP3      6684            0.0000000000
     28627      6748  TIP3      H1             -6.3148363999       12.0461791235      -30.5309616725  TIP3      6684            0.0000000000
     28628      6748  TIP3      H2             -6.2745471148       13.6125053823      -30.6318309160  TIP3      6684            0.0000000000
     28629      6749  TIP3      OH2           -20.0690778466       13.0450257118      -34.1510975885  TIP3      6685            0.0000000000
     28630      6749  TIP3      H1            -20.3552175135       13.3212695896      -33.2658206742  TIP3      6685            0.0000000000
     28631      6749  TIP3      H2            -19.2984264360       12.4840455387      -33.9509039030  TIP3      6685            0.0000000000
     28632      6750  TIP3      OH2             7.4418655098        5.5343460971      -28.0197571664  TIP3      6686            0.0000000000
     28633      6750  TIP3      H1              7.3678702165        6.5132431723      -27.9489479019  TIP3      6686            0.0000000000
     28634      6750  TIP3      H2              6.6614465888        5.3177127946      -28.5570839031  TIP3      6686            0.0000000000
     28635      6751  TIP3      OH2             6.3555150988        4.7082006520      -24.4413658535  TIP3      6687            0.0000000000
     28636      6751  TIP3      H1              6.2115895779        4.0334346616      -23.7773561548  TIP3      6687            0.0000000000
     28637      6751  TIP3      H2              5.9278770134        4.3201793627      -25.2236486238  TIP3      6687            0.0000000000
     28638      6752  TIP3      OH2             9.8994773017        7.7476543372      -26.2075988974  TIP3      6688            0.0000000000
     28639      6752  TIP3      H1              9.5725359092        6.9906278497      -25.7171166593  TIP3      6688            0.0000000000
     28640      6752  TIP3      H2             10.0160138702        8.3957758077      -25.4813853591  TIP3      6688            0.0000000000
     28641      6753  TIP3      OH2            -0.4412677278        8.8935940890      -24.3497990072  TIP3      6689            0.0000000000
     28642      6753  TIP3      H1             -0.7263441456        8.0467514648      -24.7453870760  TIP3      6689            0.0000000000
     28643      6753  TIP3      H2              0.5251385901        8.7621807303      -24.4243573038  TIP3      6689            0.0000000000
     28644      6754  TIP3      OH2            -3.8584378781        2.4003618996      -28.9245127773  TIP3      6690            0.0000000000
     28645      6754  TIP3      H1             -4.2476919905        3.2902476379      -28.9975763578  TIP3      6690            0.0000000000
     28646      6754  TIP3      H2             -4.4064935235        1.8845894377      -29.5244898674  TIP3      6690            0.0000000000
     28647      6755  TIP3      OH2            -3.0784185776        4.6954788974      -26.7512581468  TIP3      6691            0.0000000000
     28648      6755  TIP3      H1             -2.8272258149        3.8323623250      -26.3774074391  TIP3      6691            0.0000000000
     28649      6755  TIP3      H2             -2.4175788455        4.8175973697      -27.4490623800  TIP3      6691            0.0000000000
     28650      6756  TIP3      OH2             7.1053703518       12.9094664751      -25.8976216748  TIP3      6692            0.0000000000
     28651      6756  TIP3      H1              7.6929046423       12.2122121475      -26.2853491493  TIP3      6692            0.0000000000
     28652      6756  TIP3      H2              6.8611071462       12.4624857950      -25.0866434489  TIP3      6692            0.0000000000
     28653      6757  TIP3      OH2             4.6581336228        7.1732778915      -23.8701940920  TIP3      6693            0.0000000000
     28654      6757  TIP3      H1              4.9023215784        6.6027479247      -24.6202413465  TIP3      6693            0.0000000000
     28655      6757  TIP3      H2              5.5290645027        7.3547178976      -23.5055409751  TIP3      6693            0.0000000000
     28656      6758  TIP3      OH2            13.3032090461       -1.1908215116      -23.2384717096  TIP3      6694            0.0000000000
     28657      6758  TIP3      H1             13.4126641894       -0.5658946864      -22.4892725546  TIP3      6694            0.0000000000
     28658      6758  TIP3      H2             13.8374508503       -0.7616379750      -23.9098436859  TIP3      6694            0.0000000000
     28659      6759  TIP3      OH2             7.7610240327        1.5779673901      -23.6397958071  TIP3      6695            0.0000000000
     28660      6759  TIP3      H1              8.0082197296        0.6451382126      -23.6362819489  TIP3      6695            0.0000000000
     28661      6759  TIP3      H2              7.7176401978        1.7657323919      -24.5975643565  TIP3      6695            0.0000000000
     28662      6760  TIP3      OH2             0.8793581991       -0.2808092156      -26.4623298088  TIP3      6696            0.0000000000
     28663      6760  TIP3      H1              1.0332650764        0.5208957098      -27.0094583153  TIP3      6696            0.0000000000
     28664      6760  TIP3      H2              0.5116923603       -0.8742191980      -27.1565063013  TIP3      6696            0.0000000000
     28665      6761  TIP3      OH2             8.6607506012       -0.2258366465      -28.1224442750  TIP3      6697            0.0000000000
     28666      6761  TIP3      H1              9.2634722800       -0.5234395458      -27.4026800754  TIP3      6697            0.0000000000
     28667      6761  TIP3      H2              9.2287325493        0.3946508596      -28.5991485959  TIP3      6697            0.0000000000
     28668      6762  TIP3      OH2            -2.4714138689        2.1365540617      -25.7564806671  TIP3      6698            0.0000000000
     28669      6762  TIP3      H1             -1.8094754412        1.5922481247      -25.3010499591  TIP3      6698            0.0000000000
     28670      6762  TIP3      H2             -2.3521588600        1.8236402819      -26.6711869201  TIP3      6698            0.0000000000
     28671      6763  TIP3      OH2             2.7089448049        3.6955101221      -26.4102802887  TIP3      6699            0.0000000000
     28672      6763  TIP3      H1              3.3891708635        3.1017198132      -26.0469613142  TIP3      6699            0.0000000000
     28673      6763  TIP3      H2              2.2096202134        3.0705220404      -26.9705987886  TIP3      6699            0.0000000000
     28674      6764  TIP3      OH2            13.6692367435        0.2434761624      -21.1392528448  TIP3      6700            0.0000000000
     28675      6764  TIP3      H1             12.9688726764        0.9263289329      -21.1607918031  TIP3      6700            0.0000000000
     28676      6764  TIP3      H2             13.8439433478        0.0322339257      -20.2096621586  TIP3      6700            0.0000000000
     28677      6765  TIP3      OH2            -0.1686293026       -1.2369466020      -22.4525855712  TIP3      6701            0.0000000000
     28678      6765  TIP3      H1             -0.5024052201       -0.7736188287      -23.2542602388  TIP3      6701            0.0000000000
     28679      6765  TIP3      H2             -0.9025971237       -1.1366437678      -21.8350548735  TIP3      6701            0.0000000000
     28680      6766  TIP3      OH2             7.1386468767        8.1278369719      -28.9059680819  TIP3      6702            0.0000000000
     28681      6766  TIP3      H1              6.8292651569        7.8476077130      -29.7764079805  TIP3      6702            0.0000000000
     28682      6766  TIP3      H2              6.7410637980        9.0176939113      -28.8081831116  TIP3      6702            0.0000000000
     28683      6767  TIP3      OH2             2.2966060416        6.2663923951      -22.3612637073  TIP3      6703            0.0000000000
     28684      6767  TIP3      H1              1.6503228285        6.9070925986      -21.9869223816  TIP3      6703            0.0000000000
     28685      6767  TIP3      H2              3.0452614750        6.8593485173      -22.4997163700  TIP3      6703            0.0000000000
     28686      6768  TIP3      OH2            10.4143425960       -0.8353399541      -26.0368008593  TIP3      6704            0.0000000000
     28687      6768  TIP3      H1             10.2708582754       -1.6100703200      -25.4829432065  TIP3      6704            0.0000000000
     28688      6768  TIP3      H2             11.1449423043       -0.4088295214      -25.5502272486  TIP3      6704            0.0000000000
     28689      6769  TIP3      OH2            -0.6034437105        0.5402964649      -24.3630290148  TIP3      6705            0.0000000000
     28690      6769  TIP3      H1              0.0091484562        1.2601337268      -24.1644872366  TIP3      6705            0.0000000000
     28691      6769  TIP3      H2             -0.1420962592        0.0942520073      -25.1229656947  TIP3      6705            0.0000000000
     28692      6770  TIP3      OH2             0.7552490747        8.2837033037      -21.4979028519  TIP3      6706            0.0000000000
     28693      6770  TIP3      H1              0.6782595931        9.2131829713      -21.6927496452  TIP3      6706            0.0000000000
     28694      6770  TIP3      H2              0.0153382322        8.1721041912      -20.8461047662  TIP3      6706            0.0000000000
     28695      6771  TIP3      OH2            -3.1421773000        7.8607257248      -30.6144890136  TIP3      6707            0.0000000000
     28696      6771  TIP3      H1             -3.3760192827        8.2505282981      -31.4750019630  TIP3      6707            0.0000000000
     28697      6771  TIP3      H2             -3.0453099268        8.6516180868      -30.0518307963  TIP3      6707            0.0000000000
     28698      6772  TIP3      OH2            10.4522388285        9.5525823045      -23.9537937665  TIP3      6708            0.0000000000
     28699      6772  TIP3      H1              9.5203618988        9.7129944064      -23.7265124173  TIP3      6708            0.0000000000
     28700      6772  TIP3      H2             10.7707736354       10.4736186727      -24.0247672739  TIP3      6708            0.0000000000
     28701      6773  TIP3      OH2             3.7596762766       -4.0003650047      -24.9799726947  TIP3      6709            0.0000000000
     28702      6773  TIP3      H1              3.6177192374       -4.9602338139      -25.0534294889  TIP3      6709            0.0000000000
     28703      6773  TIP3      H2              2.8759238395       -3.7144934150      -24.6791695033  TIP3      6709            0.0000000000
     28704      6774  TIP3      OH2             8.8130349994       11.3398247496      -27.1869037091  TIP3      6710            0.0000000000
     28705      6774  TIP3      H1              9.1140991558       10.6150272544      -27.7636704463  TIP3      6710            0.0000000000
     28706      6774  TIP3      H2              9.2027857618       12.1215167233      -27.6285024279  TIP3      6710            0.0000000000
     28707      6775  TIP3      OH2            10.0529888978        9.2329010534      -28.7347084898  TIP3      6711            0.0000000000
     28708      6775  TIP3      H1              9.6059311737        8.5937432273      -29.3126630706  TIP3      6711            0.0000000000
     28709      6775  TIP3      H2              9.9627782081        8.7833983324      -27.8737675679  TIP3      6711            0.0000000000
     28710      6776  TIP3      OH2             6.0374408975        4.7042880759      -30.4971624641  TIP3      6712            0.0000000000
     28711      6776  TIP3      H1              5.3824113345        5.3575813234      -30.8017479295  TIP3      6712            0.0000000000
     28712      6776  TIP3      H2              6.7697698404        4.8535075095      -31.1275229362  TIP3      6712            0.0000000000
     28713      6777  TIP3      OH2             6.1620139919        3.3676180870      -33.4689366787  TIP3      6713            0.0000000000
     28714      6777  TIP3      H1              6.8627362773        3.3613684795      -32.7949941345  TIP3      6713            0.0000000000
     28715      6777  TIP3      H2              6.4509273545        2.6137533322      -33.9951659558  TIP3      6713            0.0000000000
     28716      6778  TIP3      OH2             9.5403530086        4.9264853566      -29.5486771165  TIP3      6714            0.0000000000
     28717      6778  TIP3      H1              8.8021065845        5.1914477922      -28.9521032814  TIP3      6714            0.0000000000
     28718      6778  TIP3      H2             10.0348603598        4.2891851908      -29.0023450438  TIP3      6714            0.0000000000
     28719      6779  TIP3      OH2             1.0026957456        5.5398500118      -27.5248691444  TIP3      6715            0.0000000000
     28720      6779  TIP3      H1              0.8039459513        5.2597346242      -28.4479541678  TIP3      6715            0.0000000000
     28721      6779  TIP3      H2              1.7666748054        4.9635215474      -27.3068838151  TIP3      6715            0.0000000000
     28722      6780  TIP3      OH2             2.3677364660        8.9803267542      -24.8296745888  TIP3      6716            0.0000000000
     28723      6780  TIP3      H1              2.4434887718        8.6351775121      -25.7443801587  TIP3      6716            0.0000000000
     28724      6780  TIP3      H2              3.2434289843        8.6894754401      -24.5237461688  TIP3      6716            0.0000000000
     28725      6781  TIP3      OH2             1.4156200207        4.3095568550      -24.0095536836  TIP3      6717            0.0000000000
     28726      6781  TIP3      H1              1.9681728102        4.4404090037      -24.8044166894  TIP3      6717            0.0000000000
     28727      6781  TIP3      H2              1.7597124396        5.0144373697      -23.4073028465  TIP3      6717            0.0000000000
     28728      6782  TIP3      OH2             7.8617691317       10.0063833099      -23.2037921881  TIP3      6718            0.0000000000
     28729      6782  TIP3      H1              7.4668580758       10.5717385818      -22.5468032314  TIP3      6718            0.0000000000
     28730      6782  TIP3      H2              7.6370445397        9.1042991431      -22.8756488723  TIP3      6718            0.0000000000
     28731      6783  TIP3      OH2             8.4115092063        4.1908963192      -31.8994298524  TIP3      6719            0.0000000000
     28732      6783  TIP3      H1              8.9513469221        4.3596728749      -31.0877266961  TIP3      6719            0.0000000000
     28733      6783  TIP3      H2              8.8857680824        4.6798555109      -32.6142271815  TIP3      6719            0.0000000000
     28734      6784  TIP3      OH2             6.4601769552       11.3157844564      -28.6138924961  TIP3      6720            0.0000000000
     28735      6784  TIP3      H1              6.4557211740       11.0903336387      -27.6682671428  TIP3      6720            0.0000000000
     28736      6784  TIP3      H2              5.5087832717       11.4700037937      -28.7031397638  TIP3      6720            0.0000000000
     28737      6785  TIP3      OH2            12.1329983040       -4.1038440221      -31.9332422005  TIP3      6721            0.0000000000
     28738      6785  TIP3      H1             11.1756163388       -4.0113944050      -31.7273151102  TIP3      6721            0.0000000000
     28739      6785  TIP3      H2             12.3188692944       -3.2684222350      -32.4041240340  TIP3      6721            0.0000000000
     28740      6786  TIP3      OH2             0.0601349936        4.6082965078      -29.9769836574  TIP3      6722            0.0000000000
     28741      6786  TIP3      H1             -0.2143394004        5.3932081327      -30.4970111638  TIP3      6722            0.0000000000
     28742      6786  TIP3      H2             -0.5694804958        3.9403380633      -30.2571076186  TIP3      6722            0.0000000000
     28743      6787  TIP3      OH2            13.2330126947       10.2505519317      -33.6203271380  TIP3      6723            0.0000000000
     28744      6787  TIP3      H1             13.4257989633       11.1879976959      -33.4451387706  TIP3      6723            0.0000000000
     28745      6787  TIP3      H2             14.1435453579        9.9029134451      -33.5862433807  TIP3      6723            0.0000000000
     28746      6788  TIP3      OH2            -3.7736553426        7.0154257737      -21.2626213100  TIP3      6724            0.0000000000
     28747      6788  TIP3      H1             -4.3341128395        6.9384566289      -22.0470292759  TIP3      6724            0.0000000000
     28748      6788  TIP3      H2             -3.8513416201        6.1428053291      -20.8491867344  TIP3      6724            0.0000000000
     28749      6789  TIP3      OH2            -4.0397565551        9.8167674720      -24.2857271709  TIP3      6725            0.0000000000
     28750      6789  TIP3      H1             -3.0831970049        9.7028986736      -24.3897409789  TIP3      6725            0.0000000000
     28751      6789  TIP3      H2             -4.0876217339       10.6750357230      -23.8489041732  TIP3      6725            0.0000000000
     28752      6790  TIP3      OH2             5.5960701682       13.8130374591      -30.0224693328  TIP3      6726            0.0000000000
     28753      6790  TIP3      H1              5.4615748681       13.7228751423      -30.9778851246  TIP3      6726            0.0000000000
     28754      6790  TIP3      H2              5.5881174575       14.7729177658      -29.8529096304  TIP3      6726            0.0000000000
     28755      6791  TIP3      OH2            -0.7747499145       12.6581927967      -28.1590554424  TIP3      6727            0.0000000000
     28756      6791  TIP3      H1             -0.6079137650       12.2360928438      -27.2847973451  TIP3      6727            0.0000000000
     28757      6791  TIP3      H2             -1.6291160984       12.2527073067      -28.3876453469  TIP3      6727            0.0000000000
     28758      6792  TIP3      OH2             8.6429423097       13.0154892582      -33.0062224776  TIP3      6728            0.0000000000
     28759      6792  TIP3      H1              9.1036338412       12.2531746472      -33.4224025716  TIP3      6728            0.0000000000
     28760      6792  TIP3      H2              8.6818319764       12.7734786426      -32.0586674115  TIP3      6728            0.0000000000
     28761      6793  TIP3      OH2             8.3200875269       12.9401772370      -30.2206680470  TIP3      6729            0.0000000000
     28762      6793  TIP3      H1              7.3533801320       13.0007925586      -30.0578890689  TIP3      6729            0.0000000000
     28763      6793  TIP3      H2              8.4962107626       12.1778540819      -29.6461560172  TIP3      6729            0.0000000000
     28764      6794  TIP3      OH2            -1.5777211432        8.3605011429      -20.2145202613  TIP3      6730            0.0000000000
     28765      6794  TIP3      H1             -1.3691502475        8.1159059481      -19.2915818009  TIP3      6730            0.0000000000
     28766      6794  TIP3      H2             -2.4649382269        7.9498262647      -20.3306960277  TIP3      6730            0.0000000000
     28767      6795  TIP3      OH2             1.1575886875       -3.1324735110      -24.1560479592  TIP3      6731            0.0000000000
     28768      6795  TIP3      H1              0.2882901282       -3.3330629790      -24.5659559709  TIP3      6731            0.0000000000
     28769      6795  TIP3      H2              0.9709349487       -2.2938223426      -23.7281276039  TIP3      6731            0.0000000000
     28770      6796  TIP3      OH2             9.8478382371        5.2283803070      -33.9796285572  TIP3      6732            0.0000000000
     28771      6796  TIP3      H1              9.7795160857        5.0320688840      -34.9410755234  TIP3      6732            0.0000000000
     28772      6796  TIP3      H2             10.7092576955        5.6713645386      -33.9885624586  TIP3      6732            0.0000000000
     28773      6797  TIP3      OH2             5.4251726457       -0.8536820409      -33.5534348448  TIP3      6733            0.0000000000
     28774      6797  TIP3      H1              5.1035935036       -0.9400919724      -32.6399265452  TIP3      6733            0.0000000000
     28775      6797  TIP3      H2              5.1300966815       -1.7286000616      -33.8752387556  TIP3      6733            0.0000000000
     28776      6798  TIP3      OH2             1.2172028870        1.8912524702      -28.0890112056  TIP3      6734            0.0000000000
     28777      6798  TIP3      H1              0.2662815865        1.7066516767      -28.2169819105  TIP3      6734            0.0000000000
     28778      6798  TIP3      H2              1.5645409324        1.6636971733      -28.9741779111  TIP3      6734            0.0000000000
     28779      6799  TIP3      OH2             6.7535537238        2.4873391182      -29.3201815625  TIP3      6735            0.0000000000
     28780      6799  TIP3      H1              6.3537455963        3.2885406635      -29.7233880266  TIP3      6735            0.0000000000
     28781      6799  TIP3      H2              7.4193189721        2.2736210087      -29.9977575285  TIP3      6735            0.0000000000
     28782      6800  TIP3      OH2             7.7421967390        1.9604113074      -26.4811983219  TIP3      6736            0.0000000000
     28783      6800  TIP3      H1              7.4623597125        2.5243694572      -27.2206507155  TIP3      6736            0.0000000000
     28784      6800  TIP3      H2              7.8710972505        1.1155254957      -26.9528603616  TIP3      6736            0.0000000000
     28785      6801  TIP3      OH2             2.2195482408       -0.5287303237      -34.4391628062  TIP3      6737            0.0000000000
     28786      6801  TIP3      H1              1.7516027534       -0.9324023064      -33.6765658967  TIP3      6737            0.0000000000
     28787      6801  TIP3      H2              1.5176680977       -0.0632919514      -34.9143181495  TIP3      6737            0.0000000000
     28788      6802  TIP3      OH2            -4.4608370406       -0.8074078834      -27.3059442057  TIP3      6738            0.0000000000
     28789      6802  TIP3      H1             -3.7787728627       -0.8690163573      -26.6107736953  TIP3      6738            0.0000000000
     28790      6802  TIP3      H2             -4.0225705553       -1.1851012039      -28.0897931080  TIP3      6738            0.0000000000
     28791      6803  TIP3      OH2            -3.2228669981       -0.1067434939      -31.9579451150  TIP3      6739            0.0000000000
     28792      6803  TIP3      H1             -2.6714999430        0.4730414475      -32.5201453932  TIP3      6739            0.0000000000
     28793      6803  TIP3      H2             -3.8884639679        0.5442642488      -31.6520673529  TIP3      6739            0.0000000000
     28794      6804  TIP3      OH2             3.7321898474       -0.4125133846      -27.0392853940  TIP3      6740            0.0000000000
     28795      6804  TIP3      H1              2.8033875518       -0.5100434111      -26.7505058048  TIP3      6740            0.0000000000
     28796      6804  TIP3      H2              4.2591732672       -0.7320342136      -26.2919962536  TIP3      6740            0.0000000000
     28797      6805  TIP3      OH2            -1.4366648166        1.0393767649      -28.1998805124  TIP3      6741            0.0000000000
     28798      6805  TIP3      H1             -2.3036828820        1.2259181923      -28.6178157497  TIP3      6741            0.0000000000
     28799      6805  TIP3      H2             -1.1433114438        0.2241664874      -28.6450925500  TIP3      6741            0.0000000000
     28800      6806  TIP3      OH2             2.2071483437        1.1313797752      -30.5865605894  TIP3      6742            0.0000000000
     28801      6806  TIP3      H1              3.1673951980        1.2240728305      -30.4514659180  TIP3      6742            0.0000000000
     28802      6806  TIP3      H2              1.9673812197        1.8120387651      -31.2420859777  TIP3      6742            0.0000000000
     28803      6807  TIP3      OH2             0.9343336803        2.2845935761      -33.0102344211  TIP3      6743            0.0000000000
     28804      6807  TIP3      H1              0.3996922160        1.9013343635      -33.7260563939  TIP3      6743            0.0000000000
     28805      6807  TIP3      H2              1.7477482176        2.5078735381      -33.4900446008  TIP3      6743            0.0000000000
     28806      6808  TIP3      OH2             4.9976653703        2.2387711156      -25.2039990103  TIP3      6744            0.0000000000
     28807      6808  TIP3      H1              5.6588928264        1.7883388758      -25.7489062547  TIP3      6744            0.0000000000
     28808      6808  TIP3      H2              5.0056624453        1.7132160733      -24.4026507252  TIP3      6744            0.0000000000
     28809      6809  TIP3      OH2             0.0542494607       -1.5817418718      -28.7591295309  TIP3      6745            0.0000000000
     28810      6809  TIP3      H1             -0.2767286093       -2.4975775709      -28.7337366456  TIP3      6745            0.0000000000
     28811      6809  TIP3      H2              0.8425805069       -1.6816269560      -29.3077889311  TIP3      6745            0.0000000000
     28812      6810  TIP3      OH2             4.2878201494        6.7799247474      -31.0747683032  TIP3      6746            0.0000000000
     28813      6810  TIP3      H1              3.4601392372        6.3615820877      -31.4032093806  TIP3      6746            0.0000000000
     28814      6810  TIP3      H2              4.0079675318        6.9930014003      -30.1549655644  TIP3      6746            0.0000000000
     28815      6811  TIP3      OH2            11.5363467624        5.7633538431      -22.4699120097  TIP3      6747            0.0000000000
     28816      6811  TIP3      H1             12.1327755675        6.4591051598      -22.8329124227  TIP3      6747            0.0000000000
     28817      6811  TIP3      H2             10.6866961908        6.0725399802      -22.8309325532  TIP3      6747            0.0000000000
     28818      6812  TIP3      OH2             8.0910739202       -0.3890379040      -32.9177614384  TIP3      6748            0.0000000000
     28819      6812  TIP3      H1              7.1422803429       -0.2110330220      -33.0539590636  TIP3      6748            0.0000000000
     28820      6812  TIP3      H2              8.4365006265        0.4566369029      -32.5512494706  TIP3      6748            0.0000000000
     28821      6813  TIP3      OH2             8.8220490042        1.5789772753      -31.3233641192  TIP3      6749            0.0000000000
     28822      6813  TIP3      H1              9.6827041943        1.4371325338      -30.8751933083  TIP3      6749            0.0000000000
     28823      6813  TIP3      H2              8.9616375457        2.4087017901      -31.8122789849  TIP3      6749            0.0000000000
     28824      6814  TIP3      OH2            -0.6457838737        6.2187273180      -25.2912345945  TIP3      6750            0.0000000000
     28825      6814  TIP3      H1              0.0282657509        6.1800119482      -26.0057810521  TIP3      6750            0.0000000000
     28826      6814  TIP3      H2             -0.4834150741        5.3820876925      -24.8373105235  TIP3      6750            0.0000000000
     28827      6815  TIP3      OH2             6.3601708200        8.2529173807      -32.0924961155  TIP3      6751            0.0000000000
     28828      6815  TIP3      H1              6.0451952328        9.1062176232      -31.7232384204  TIP3      6751            0.0000000000
     28829      6815  TIP3      H2              5.6373257081        7.6465356321      -31.8231254992  TIP3      6751            0.0000000000
     28830      6816  TIP3      OH2            13.7331064300        1.6673343372      -31.5142797175  TIP3      6752            0.0000000000
     28831      6816  TIP3      H1             13.1636476657        1.4190786300      -32.2699291044  TIP3      6752            0.0000000000
     28832      6816  TIP3      H2             13.8148614915        2.6228701908      -31.7235399900  TIP3      6752            0.0000000000
     28833      6817  TIP3      OH2            11.9701130549       10.5128423332      -31.1387698774  TIP3      6753            0.0000000000
     28834      6817  TIP3      H1             11.6248297269        9.6889131566      -30.7674124218  TIP3      6753            0.0000000000
     28835      6817  TIP3      H2             12.3558701083       10.2639424798      -31.9954028825  TIP3      6753            0.0000000000
     28836      6818  TIP3      OH2             9.1714542813        5.3206743742      -24.0074210556  TIP3      6754            0.0000000000
     28837      6818  TIP3      H1              8.2536990055        5.0892545360      -24.2094969950  TIP3      6754            0.0000000000
     28838      6818  TIP3      H2              9.6596841529        4.5965206641      -24.4439313432  TIP3      6754            0.0000000000
     28839      6819  TIP3      OH2             1.3373147488        9.7472724066      -27.7384136800  TIP3      6755            0.0000000000
     28840      6819  TIP3      H1              2.1767791431       10.2115585776      -27.9661397361  TIP3      6755            0.0000000000
     28841      6819  TIP3      H2              0.7302949779       10.0440661662      -28.4112082140  TIP3      6755            0.0000000000
     28842      6820  TIP3      OH2            -2.4676669777        4.4996546042      -33.3241141427  TIP3      6756            0.0000000000
     28843      6820  TIP3      H1             -1.9052608426        5.1756285573      -32.9073899306  TIP3      6756            0.0000000000
     28844      6820  TIP3      H2             -3.3717923753        4.7971015863      -33.0994877709  TIP3      6756            0.0000000000
     28845      6821  TIP3      OH2             2.8798184106        7.1059718403      -28.6842360664  TIP3      6757            0.0000000000
     28846      6821  TIP3      H1              3.0325535838        8.0326252358      -28.3657677934  TIP3      6757            0.0000000000
     28847      6821  TIP3      H2              2.3595056216        6.7608348143      -27.9330663715  TIP3      6757            0.0000000000
     28848      6822  TIP3      OH2             1.8328861907       12.3713830380      -28.9425820392  TIP3      6758            0.0000000000
     28849      6822  TIP3      H1              0.8912524456       12.4303118013      -28.6759394519  TIP3      6758            0.0000000000
     28850      6822  TIP3      H2              2.2129318237       13.1620047080      -28.5250899054  TIP3      6758            0.0000000000
     28851      6823  TIP3      OH2             7.1264220937        7.5502697065      -22.3801936473  TIP3      6759            0.0000000000
     28852      6823  TIP3      H1              6.8528798542        7.3628923357      -21.4792418856  TIP3      6759            0.0000000000
     28853      6823  TIP3      H2              7.7688420570        6.8547991515      -22.5980165618  TIP3      6759            0.0000000000
     28854      6824  TIP3      OH2             9.5144207895        8.6297921562      -33.2627670560  TIP3      6760            0.0000000000
     28855      6824  TIP3      H1              9.7881986955        8.1469839537      -32.4560455673  TIP3      6760            0.0000000000
     28856      6824  TIP3      H2              8.5639803591        8.4225771379      -33.2184109965  TIP3      6760            0.0000000000
     28857      6825  TIP3      OH2            13.9414321984       12.9502543643      -33.0115419595  TIP3      6761            0.0000000000
     28858      6825  TIP3      H1             14.6209466712       13.6167476672      -33.2366268036  TIP3      6761            0.0000000000
     28859      6825  TIP3      H2             13.2255666603       13.5572365936      -32.7172981831  TIP3      6761            0.0000000000
     28860      6826  TIP3      OH2            10.2554545336        7.2328214805      -31.0222924369  TIP3      6762            0.0000000000
     28861      6826  TIP3      H1             10.0149335800        6.4382179594      -30.5018633390  TIP3      6762            0.0000000000
     28862      6826  TIP3      H2             11.2149273726        7.2555722052      -30.8584680158  TIP3      6762            0.0000000000
     28863      6827  TIP3      OH2            -2.3403523246       11.1601860232      -22.0903881260  TIP3      6763            0.0000000000
     28864      6827  TIP3      H1             -2.1264200640       10.2078737385      -22.0537179684  TIP3      6763            0.0000000000
     28865      6827  TIP3      H2             -2.1184279068       11.4176197233      -21.1872250757  TIP3      6763            0.0000000000
     28866      6828  TIP3      OH2             3.6346286710        9.6793104291      -34.7511037070  TIP3      6764            0.0000000000
     28867      6828  TIP3      H1              3.6980086576        8.9252545352      -35.3605562423  TIP3      6764            0.0000000000
     28868      6828  TIP3      H2              3.1348871062        9.2536964804      -34.0204507032  TIP3      6764            0.0000000000
     28869      6829  TIP3      OH2             2.3466508801        9.1871682292      -32.3043692721  TIP3      6765            0.0000000000
     28870      6829  TIP3      H1              2.6815259218        8.6793811072      -31.5514886393  TIP3      6765            0.0000000000
     28871      6829  TIP3      H2              2.4764114721       10.1080055969      -31.9745749449  TIP3      6765            0.0000000000
     28872      6830  TIP3      OH2            -1.0615214145        6.4390844948      -31.8280665485  TIP3      6766            0.0000000000
     28873      6830  TIP3      H1             -1.7897317402        6.8449144726      -31.3137298195  TIP3      6766            0.0000000000
     28874      6830  TIP3      H2             -0.5702287150        7.2148200222      -32.1494213440  TIP3      6766            0.0000000000
     28875      6831  TIP3      OH2             7.4952854431       -1.3360118126      -30.4272005514  TIP3      6767            0.0000000000
     28876      6831  TIP3      H1              7.7146811463       -0.8844785090      -31.2603855497  TIP3      6767            0.0000000000
     28877      6831  TIP3      H2              8.0560225071       -0.8511884708      -29.8044737826  TIP3      6767            0.0000000000
     28878      6832  TIP3      OH2             5.1611261032       10.8161455635      -31.7080145977  TIP3      6768            0.0000000000
     28879      6832  TIP3      H1              4.3734972581       11.3651146039      -31.5172663680  TIP3      6768            0.0000000000
     28880      6832  TIP3      H2              5.7339903680       11.4473284472      -32.1628368800  TIP3      6768            0.0000000000
     28881      6833  TIP3      OH2             4.7441266376        0.4188446110      -29.6014941148  TIP3      6769            0.0000000000
     28882      6833  TIP3      H1              5.4958532789        1.0376473720      -29.5310007612  TIP3      6769            0.0000000000
     28883      6833  TIP3      H2              4.4544005930        0.2891000561      -28.6769607146  TIP3      6769            0.0000000000
     28884      6834  TIP3      OH2             5.2725709566        1.4316455493      -20.4767281580  TIP3      6770            0.0000000000
     28885      6834  TIP3      H1              5.3305269100        2.0147806305      -19.7203066669  TIP3      6770            0.0000000000
     28886      6834  TIP3      H2              5.9638570872        0.7679045600      -20.4166246264  TIP3      6770            0.0000000000
     28887      6835  TIP3      OH2             5.5663169526       -2.5282406849      -28.7656732489  TIP3      6771            0.0000000000
     28888      6835  TIP3      H1              5.2451523859       -1.8803403588      -28.1178363311  TIP3      6771            0.0000000000
     28889      6835  TIP3      H2              6.2729288380       -1.9810195038      -29.1883863755  TIP3      6771            0.0000000000
     28890      6836  TIP3      OH2             2.5916979824       11.8658608496      -31.6025223398  TIP3      6772            0.0000000000
     28891      6836  TIP3      H1              2.6860692314       12.6901886872      -32.1310016442  TIP3      6772            0.0000000000
     28892      6836  TIP3      H2              2.3282045080       12.2181089742      -30.7175908862  TIP3      6772            0.0000000000
     28893      6837  TIP3      OH2             1.2279238701       -1.3929865919      -32.0178981793  TIP3      6773            0.0000000000
     28894      6837  TIP3      H1              1.1793217008       -0.5025602976      -31.6170190862  TIP3      6773            0.0000000000
     28895      6837  TIP3      H2              2.1357325682       -1.6483619566      -31.7533776916  TIP3      6773            0.0000000000
     28896      6838  TIP3      OH2            10.0601777634        3.1274183060      -25.5894989356  TIP3      6774            0.0000000000
     28897      6838  TIP3      H1              9.2558261333        2.6250034547      -25.8239973753  TIP3      6774            0.0000000000
     28898      6838  TIP3      H2             10.5897223800        2.4580229908      -25.0934095175  TIP3      6774            0.0000000000
     28899      6839  TIP3      OH2            -0.5468880019        9.0568291210      -33.0199902650  TIP3      6775            0.0000000000
     28900      6839  TIP3      H1              0.1490039101        9.6184417453      -32.6432049087  TIP3      6775            0.0000000000
     28901      6839  TIP3      H2              0.0007042337        8.5543634646      -33.6545178532  TIP3      6775            0.0000000000
     28902      6840  TIP3      OH2            -2.2056244759        1.7246736748      -33.8292470255  TIP3      6776            0.0000000000
     28903      6840  TIP3      H1             -2.1600011285        2.6766392647      -33.6015656054  TIP3      6776            0.0000000000
     28904      6840  TIP3      H2             -3.1001701324        1.5924480720      -34.1544872394  TIP3      6776            0.0000000000
     28905      6841  TIP3      OH2            11.1450806098       12.3477308809      -23.9517761208  TIP3      6777            0.0000000000
     28906      6841  TIP3      H1             11.0480774031       13.0736728516      -24.5991168312  TIP3      6777            0.0000000000
     28907      6841  TIP3      H2             12.0624128880       12.4847531198      -23.6706019232  TIP3      6777            0.0000000000
     28908      6842  TIP3      OH2            -1.3922828085       -3.4793636242      -25.0577380166  TIP3      6778            0.0000000000
     28909      6842  TIP3      H1             -1.5419379125       -3.4771186388      -26.0311899610  TIP3      6778            0.0000000000
     28910      6842  TIP3      H2             -1.7555803819       -4.3668152156      -24.8337644863  TIP3      6778            0.0000000000
     28911      6843  TIP3      OH2            -2.4028695530       10.4273611754      -28.9092850229  TIP3      6779            0.0000000000
     28912      6843  TIP3      H1             -3.2671223306       10.8426753966      -28.9812732071  TIP3      6779            0.0000000000
     28913      6843  TIP3      H2             -1.9679705911       10.8519006088      -29.6586994020  TIP3      6779            0.0000000000
     28914      6844  TIP3      OH2             5.6347552411       11.5263078395      -34.6367929393  TIP3      6780            0.0000000000
     28915      6844  TIP3      H1              4.9227867100       10.8684813519      -34.4555926441  TIP3      6780            0.0000000000
     28916      6844  TIP3      H2              6.3363030696       10.9130948965      -34.9000060385  TIP3      6780            0.0000000000
     28917      6845  TIP3      OH2            10.1717033140       11.2399750111      -34.4663232703  TIP3      6781            0.0000000000
     28918      6845  TIP3      H1             10.4592905457       10.4703316850      -33.9483528092  TIP3      6781            0.0000000000
     28919      6845  TIP3      H2             10.9383908334       11.4349794462      -35.0230924823  TIP3      6781            0.0000000000
     28920      6846  TIP3      OH2             1.0432211880        7.1902178570      -34.6697355029  TIP3      6782            0.0000000000
     28921      6846  TIP3      H1              1.1962304007        6.4613514023      -34.0467312532  TIP3      6782            0.0000000000
     28922      6846  TIP3      H2              1.8124115757        7.0777845761      -35.2629780106  TIP3      6782            0.0000000000
     28923      6847  TIP3      OH2             6.4913365084        8.3241496863      -34.8754257753  TIP3      6783            0.0000000000
     28924      6847  TIP3      H1              6.2229990880        8.3736563303      -33.9422135652  TIP3      6783            0.0000000000
     28925      6847  TIP3      H2              6.3163382493        7.3671621700      -35.0405426299  TIP3      6783            0.0000000000
     28926      6848  TIP3      OH2             2.2516399001        5.2189620584      -32.1880336840  TIP3      6784            0.0000000000
     28927      6848  TIP3      H1              1.7207108140        4.6722852514      -31.5927213872  TIP3      6784            0.0000000000
     28928      6848  TIP3      H2              2.5699095089        4.5626969249      -32.8461180379  TIP3      6784            0.0000000000
     28929      6849  TIP3      OH2             3.3337931476        3.4488689825      -34.0227033629  TIP3      6785            0.0000000000
     28930      6849  TIP3      H1              3.1939455300        3.3857807414      -34.9897824142  TIP3      6785            0.0000000000
     28931      6849  TIP3      H2              4.3100844602        3.4734818493      -33.9407402389  TIP3      6785            0.0000000000
     28932      6850  TIP3      OH2            12.6157380032        5.7511550380      -34.6317417662  TIP3      6786            0.0000000000
     28933      6850  TIP3      H1             12.4732906915        5.3932947631      -35.5237675171  TIP3      6786            0.0000000000
     28934      6850  TIP3      H2             12.7331349862        6.7169245433      -34.7970767220  TIP3      6786            0.0000000000
     28935      6851  TIP3      OH2             2.2395369184       -1.1567645548      -21.2767846616  TIP3      6787            0.0000000000
     28936      6851  TIP3      H1              2.8445767198       -0.8307047450      -21.9598466635  TIP3      6787            0.0000000000
     28937      6851  TIP3      H2              1.4152981922       -1.3340952594      -21.7676635547  TIP3      6787            0.0000000000
     28938      6852  TIP3      OH2             3.1378575374       -3.7352426265      -20.9207548835  TIP3      6788            0.0000000000
     28939      6852  TIP3      H1              2.9478521594       -2.7924000259      -21.0303770904  TIP3      6788            0.0000000000
     28940      6852  TIP3      H2              2.4666032904       -4.1731908848      -21.4501140083  TIP3      6788            0.0000000000
     28941      6853  TIP3      OH2             3.1463481783       14.1600198531      -32.9096835253  TIP3      6789            0.0000000000
     28942      6853  TIP3      H1              4.1165237899       14.2011985861      -32.8576117727  TIP3      6789            0.0000000000
     28943      6853  TIP3      H2              3.0194078550       14.7142269229      -33.6919638958  TIP3      6789            0.0000000000
     28944      6854  TIP3      OH2            -3.3059639613        8.6803167369      -33.4532850897  TIP3      6790            0.0000000000
     28945      6854  TIP3      H1             -2.3423940117        8.7898025322      -33.3038459549  TIP3      6790            0.0000000000
     28946      6854  TIP3      H2             -3.2816239471        8.0630266081      -34.2228762570  TIP3      6790            0.0000000000
     28947      6855  TIP3      OH2            -4.5234474483       14.0405480351      -28.5261177432  TIP3      6791            0.0000000000
     28948      6855  TIP3      H1             -5.2631353572       13.5474732493      -28.9280714550  TIP3      6791            0.0000000000
     28949      6855  TIP3      H2             -4.2294304326       13.4410078594      -27.8113672731  TIP3      6791            0.0000000000
     28950      6856  TIP3      OH2            -3.6888317778       12.2828997978      -26.6216809023  TIP3      6792            0.0000000000
     28951      6856  TIP3      H1             -3.9807449675       11.3762037068      -26.4506997004  TIP3      6792            0.0000000000
     28952      6856  TIP3      H2             -3.3930672094       12.5756167245      -25.7427719077  TIP3      6792            0.0000000000
     28953      6857  TIP3      OH2            13.9386637707       12.9455845994      -23.6818194172  TIP3      6793            0.0000000000
     28954      6857  TIP3      H1             13.8707205380       13.2122912764      -22.7536695959  TIP3      6793            0.0000000000
     28955      6857  TIP3      H2             14.5329802495       13.6353051660      -24.0043191512  TIP3      6793            0.0000000000
     28956      6858  TIP3      OH2            13.4319274224       12.5987216029      -20.7219634058  TIP3      6794            0.0000000000
     28957      6858  TIP3      H1             12.9582080052       11.8677580988      -21.1439269029  TIP3      6794            0.0000000000
     28958      6858  TIP3      H2             13.9466024982       12.1395085074      -20.0532349143  TIP3      6794            0.0000000000
     28959      6859  TIP3      OH2            13.1943673922        6.6889810549      -30.6762581806  TIP3      6795            0.0000000000
     28960      6859  TIP3      H1             14.0641278236        7.0735315703      -30.4755734869  TIP3      6795            0.0000000000
     28961      6859  TIP3      H2             13.1564441872        5.9899777304      -29.9918673210  TIP3      6795            0.0000000000
     28962      6860  TIP3      OH2            13.5184183575        4.7619900620      -28.7795398569  TIP3      6796            0.0000000000
     28963      6860  TIP3      H1             12.7682618100        4.2825675659      -28.3630910441  TIP3      6796            0.0000000000
     28964      6860  TIP3      H2             14.1343109757        4.8744801574      -28.0248325518  TIP3      6796            0.0000000000
     28965      6861  TIP3      OH2            13.2331745237        7.4179968326      -23.8398005731  TIP3      6797            0.0000000000
     28966      6861  TIP3      H1             14.1008204582        7.0275682145      -24.0420239689  TIP3      6797            0.0000000000
     28967      6861  TIP3      H2             13.4055426430        8.3714607084      -23.9334278980  TIP3      6797            0.0000000000
     28968      6862  TIP3      OH2            13.8490239540        4.5740645910      -32.3749385601  TIP3      6798            0.0000000000
     28969      6862  TIP3      H1             13.2644843300        4.8838592356      -33.0962589777  TIP3      6798            0.0000000000
     28970      6862  TIP3      H2             13.7200108924        5.2914916740      -31.7245216766  TIP3      6798            0.0000000000
     28971      6863  TIP3      OH2            12.2396012751        1.7807584012      -33.8877108351  TIP3      6799            0.0000000000
     28972      6863  TIP3      H1             12.3077427444        2.4439325651      -34.5844031762  TIP3      6799            0.0000000000
     28973      6863  TIP3      H2             12.0328553119        0.9592993247      -34.3767480550  TIP3      6799            0.0000000000
     28974      6864  TIP3      OH2            11.3409861058        3.2265056321      -28.1649538480  TIP3      6800            0.0000000000
     28975      6864  TIP3      H1             11.2251743203        2.2699517662      -28.2420287793  TIP3      6800            0.0000000000
     28976      6864  TIP3      H2             11.0672122415        3.3985652921      -27.2445936236  TIP3      6800            0.0000000000
     28977      6865  TIP3      OH2            -3.6132393964        5.3044893499      -24.0886451401  TIP3      6801            0.0000000000
     28978      6865  TIP3      H1             -3.4872259987        5.2100833888      -25.0651614524  TIP3      6801            0.0000000000
     28979      6865  TIP3      H2             -2.7082326620        5.1987767975      -23.7876510732  TIP3      6801            0.0000000000
     28980      6866  TIP3      OH2            11.4767741573       -0.7156792611      -34.7319649390  TIP3      6802            0.0000000000
     28981      6866  TIP3      H1             12.0598011756       -1.1734354281      -34.0936981299  TIP3      6802            0.0000000000
     28982      6866  TIP3      H2             10.6081120260       -1.1220627389      -34.5926417450  TIP3      6802            0.0000000000
     28983      6867  TIP3      OH2            10.9917674566        0.8098595541      -29.7936986430  TIP3      6803            0.0000000000
     28984      6867  TIP3      H1             11.3055738952       -0.1078675360      -29.6257768546  TIP3      6803            0.0000000000
     28985      6867  TIP3      H2             11.8246807749        1.2134485744      -30.0732158106  TIP3      6803            0.0000000000
     28986      6868  TIP3      OH2            11.6780147110        1.4105746933      -24.3058010723  TIP3      6804            0.0000000000
     28987      6868  TIP3      H1             12.6456916539        1.5723718647      -24.3103276149  TIP3      6804            0.0000000000
     28988      6868  TIP3      H2             11.5120771396        1.4367587299      -23.3517109975  TIP3      6804            0.0000000000
     28989      6869  TIP3      OH2            11.7083825923        2.0979546917      -21.5224757902  TIP3      6805            0.0000000000
     28990      6869  TIP3      H1             10.8460894230        2.3534822997      -21.1930796347  TIP3      6805            0.0000000000
     28991      6869  TIP3      H2             12.1016166864        2.9470884896      -21.7939655556  TIP3      6805            0.0000000000
     28992      6870  TIP3      OH2            11.7129074015       -1.8933373013      -29.6942936087  TIP3      6806            0.0000000000
     28993      6870  TIP3      H1             11.9529607215       -2.3075838361      -28.8314923821  TIP3      6806            0.0000000000
     28994      6870  TIP3      H2             11.1342110154       -2.5631068934      -30.1113880515  TIP3      6806            0.0000000000
     28995      6871  TIP3      OH2            -2.8119886574       -1.0837025195      -25.0427161821  TIP3      6807            0.0000000000
     28996      6871  TIP3      H1             -2.3798299038       -1.9495793051      -24.8962258037  TIP3      6807            0.0000000000
     28997      6871  TIP3      H2             -2.1787181210       -0.4303547332      -24.7322692502  TIP3      6807            0.0000000000
     28998      6872  TIP3      OH2            -4.5383072210        1.8315152459      -24.1214292335  TIP3      6808            0.0000000000
     28999      6872  TIP3      H1             -3.9980473193        1.6593081648      -24.9177162827  TIP3      6808            0.0000000000
     29000      6872  TIP3      H2             -4.1267772538        2.6380820031      -23.7842830194  TIP3      6808            0.0000000000
     29001      6873  TIP3      OH2            13.5124530876       -1.8722652721      -33.1286406558  TIP3      6809            0.0000000000
     29002      6873  TIP3      H1             13.9232046396       -2.5725188371      -33.6838859540  TIP3      6809            0.0000000000
     29003      6873  TIP3      H2             14.2139215768       -1.2066484477      -33.0791444325  TIP3      6809            0.0000000000
     29004      6874  TIP3      OH2            -4.1472499894       -1.8006930379      -29.9966260248  TIP3      6810            0.0000000000
     29005      6874  TIP3      H1             -5.0943977147       -1.6807953849      -30.1700625798  TIP3      6810            0.0000000000
     29006      6874  TIP3      H2             -3.7535788296       -1.3297311884      -30.7504287333  TIP3      6810            0.0000000000
     29007      6875  TIP3      OH2            10.5814360356       13.1297903662      -28.0892867610  TIP3      6811            0.0000000000
     29008      6875  TIP3      H1             11.2774555966       12.8264812794      -28.6979895223  TIP3      6811            0.0000000000
     29009      6875  TIP3      H2             11.0788994181       13.6085316991      -27.4091810624  TIP3      6811            0.0000000000
     29010      6876  TIP3      OH2            -1.5552198208       14.2705310098      -21.2516919707  TIP3      6812            0.0000000000
     29011      6876  TIP3      H1             -2.2808769043       14.6811427300      -21.7372492634  TIP3      6812            0.0000000000
     29012      6876  TIP3      H2             -1.9563357500       14.0268296205      -20.4128738768  TIP3      6812            0.0000000000
     29013      6877  TIP3      OH2             5.4692943642       13.7216686330      -23.0376320184  TIP3      6813            0.0000000000
     29014      6877  TIP3      H1              5.1617690422       14.3049935914      -23.7557320891  TIP3      6813            0.0000000000
     29015      6877  TIP3      H2              5.7893386468       14.3670985227      -22.3767710366  TIP3      6813            0.0000000000
     29016      6878  TIP3      OH2            -2.1455273810       12.9265787087      -24.3282735807  TIP3      6814            0.0000000000
     29017      6878  TIP3      H1             -2.1817063764       12.4144701334      -23.4980633311  TIP3      6814            0.0000000000
     29018      6878  TIP3      H2             -1.3535744667       12.5276532938      -24.7556205654  TIP3      6814            0.0000000000
     29019      6879  TIP3      OH2            -0.1605433045       11.6238559844      -25.6311228364  TIP3      6815            0.0000000000
     29020      6879  TIP3      H1             -0.2441753683       10.6574322999      -25.5159632834  TIP3      6815            0.0000000000
     29021      6879  TIP3      H2              0.7432346801       11.7779806777      -25.2796885892  TIP3      6815            0.0000000000
     29022      6880  TIP3      OH2             2.4627367707       12.0839583912      -24.7976484197  TIP3      6816            0.0000000000
     29023      6880  TIP3      H1              2.6790831466       11.1940244063      -25.1456076527  TIP3      6816            0.0000000000
     29024      6880  TIP3      H2              2.5279368554       11.9545183169      -23.8530206413  TIP3      6816            0.0000000000
     29025      6881  TIP3      OH2             5.8911206774       -2.2489534131      -25.7978891737  TIP3      6817            0.0000000000
     29026      6881  TIP3      H1              5.3105107931       -2.8918604046      -25.3655906474  TIP3      6817            0.0000000000
     29027      6881  TIP3      H2              6.5342354960       -2.8186402418      -26.2348584864  TIP3      6817            0.0000000000
     29028      6882  TIP3      OH2            11.1172359890       -4.2484021566      -25.6092255358  TIP3      6818            0.0000000000
     29029      6882  TIP3      H1             11.6894093170       -3.6009024783      -26.0786573124  TIP3      6818            0.0000000000
     29030      6882  TIP3      H2             10.2185859694       -3.8897556722      -25.8025844427  TIP3      6818            0.0000000000
     29031      6883  TIP3      OH2            12.7501708649       -2.9118481646      -27.4049158556  TIP3      6819            0.0000000000
     29032      6883  TIP3      H1             13.4371312044       -3.5208661126      -27.7571143089  TIP3      6819            0.0000000000
     29033      6883  TIP3      H2             13.2863238516       -2.1009148095      -27.2428502096  TIP3      6819            0.0000000000
     29034      6884  TIP3      OH2            -1.6713719538       -3.6226732554      -27.8485655865  TIP3      6820            0.0000000000
     29035      6884  TIP3      H1             -2.4812843917       -3.7973122725      -28.3587419180  TIP3      6820            0.0000000000
     29036      6884  TIP3      H2             -1.2445164209       -4.5042760547      -27.8990960648  TIP3      6820            0.0000000000
     29037      6885  TIP3      OH2            -2.9286248995       -3.8820419031      -32.1436726027  TIP3      6821            0.0000000000
     29038      6885  TIP3      H1             -2.4054793530       -3.2269679825      -32.6405930250  TIP3      6821            0.0000000000
     29039      6885  TIP3      H2             -3.4615288248       -3.3097503464      -31.5695046359  TIP3      6821            0.0000000000
     29040      6886  TIP3      OH2             2.7784146991       -3.6982588956      -28.0416526322  TIP3      6822            0.0000000000
     29041      6886  TIP3      H1              3.6761292161       -3.3495978590      -28.1394778648  TIP3      6822            0.0000000000
     29042      6886  TIP3      H2              2.7668846854       -3.9162673548      -27.1083787753  TIP3      6822            0.0000000000
     29043      6887  TIP3      OH2             8.5571943874       -3.7085749678      -26.4007470202  TIP3      6823            0.0000000000
     29044      6887  TIP3      H1              8.4500620996       -3.5429215812      -27.3403929381  TIP3      6823            0.0000000000
     29045      6887  TIP3      H2              8.1163355362       -4.5804689894      -26.2948527015  TIP3      6823            0.0000000000
     29046      6888  TIP3      OH2             9.7611981369       -3.6664888264      -30.7331437089  TIP3      6824            0.0000000000
     29047      6888  TIP3      H1              9.0044153124       -3.0792750949      -30.8773450615  TIP3      6824            0.0000000000
     29048      6888  TIP3      H2              9.3329421576       -4.5128939519      -30.4661498015  TIP3      6824            0.0000000000
     29049      6889  TIP3      OH2            -3.0890517575       12.0771142439      -31.0262072004  TIP3      6825            0.0000000000
     29050      6889  TIP3      H1             -3.6401529944       12.0623571054      -31.8240752073  TIP3      6825            0.0000000000
     29051      6889  TIP3      H2             -2.9874320406       13.0343675295      -30.9160273514  TIP3      6825            0.0000000000
     29052      6890  TIP3      OH2            -1.1153692996       -1.9378723341      -33.5780211727  TIP3      6826            0.0000000000
     29053      6890  TIP3      H1             -0.5798373624       -2.5409182919      -34.1217603445  TIP3      6826            0.0000000000
     29054      6890  TIP3      H2             -0.4396285064       -1.6005064351      -32.9625004739  TIP3      6826            0.0000000000
     29055      6891  TIP3      OH2             3.9080894241       -1.7084096048      -31.1941525825  TIP3      6827            0.0000000000
     29056      6891  TIP3      H1              4.1903454870       -2.2667789760      -30.4485350254  TIP3      6827            0.0000000000
     29057      6891  TIP3      H2              4.0374186178       -0.8300489115      -30.7790196571  TIP3      6827            0.0000000000
     29058      6892  TIP3      OH2             5.8798889220       13.4147829949      -32.7591982360  TIP3      6828            0.0000000000
     29059      6892  TIP3      H1              6.8149853215       13.5836369159      -32.9689918958  TIP3      6828            0.0000000000
     29060      6892  TIP3      H2              5.6575855956       12.8504651332      -33.5280974717  TIP3      6828            0.0000000000
     29061      6893  TIP3      OH2            12.5419723669       12.8580093241      -30.0045489219  TIP3      6829            0.0000000000
     29062      6893  TIP3      H1             12.3662090503       12.0737530354      -30.5740628788  TIP3      6829            0.0000000000
     29063      6893  TIP3      H2             12.4794348764       13.5944885466      -30.6495018897  TIP3      6829            0.0000000000
     29064      6894  TIP3      OH2            -1.2269950964       13.0673025313      -34.1290632429  TIP3      6830            0.0000000000
     29065      6894  TIP3      H1             -1.4779118842       13.3290619262      -33.2336413855  TIP3      6830            0.0000000000
     29066      6894  TIP3      H2             -0.4433720384       12.5014208162      -33.9842624250  TIP3      6830            0.0000000000
     29067      6895  TIP3      OH2            17.4315489840        4.4394106167      -22.8101676039  TIP3      6831            0.0000000000
     29068      6895  TIP3      H1             17.6443737193        3.7253001513      -22.2127374203  TIP3      6831            0.0000000000
     29069      6895  TIP3      H2             18.1997823392        5.0309747824      -22.7415924547  TIP3      6831            0.0000000000
     29070      6896  TIP3      OH2            18.4204236358        8.9083678528      -24.4624985834  TIP3      6832            0.0000000000
     29071      6896  TIP3      H1             18.0813311645        8.0308496791      -24.7248292505  TIP3      6832            0.0000000000
     29072      6896  TIP3      H2             19.3747870344        8.7150322746      -24.3745690096  TIP3      6832            0.0000000000
     29073      6897  TIP3      OH2            15.0019169062        2.4259745581      -28.9278680956  TIP3      6833            0.0000000000
     29074      6897  TIP3      H1             14.6035143883        3.3073977919      -28.9972689926  TIP3      6833            0.0000000000
     29075      6897  TIP3      H2             14.4470903795        1.8965321485      -29.5174748468  TIP3      6833            0.0000000000
     29076      6898  TIP3      OH2            15.7268081556        4.6918934246      -26.7804632800  TIP3      6834            0.0000000000
     29077      6898  TIP3      H1             16.0183093380        3.8705662784      -26.3404508974  TIP3      6834            0.0000000000
     29078      6898  TIP3      H2             16.4127528636        4.8077476592      -27.4503610298  TIP3      6834            0.0000000000
     29079      6899  TIP3      OH2            19.5633905854       -0.2796370085      -26.4231514057  TIP3      6835            0.0000000000
     29080      6899  TIP3      H1             19.9294310942        0.4966034487      -26.9018515060  TIP3      6835            0.0000000000
     29081      6899  TIP3      H2             19.2828913129       -0.8543929641      -27.1657073234  TIP3      6835            0.0000000000
     29082      6900  TIP3      OH2            16.3881658420        2.1259974369      -25.7410374309  TIP3      6836            0.0000000000
     29083      6900  TIP3      H1             17.0894274971        1.5895469421      -25.3231706593  TIP3      6836            0.0000000000
     29084      6900  TIP3      H2             16.4992918444        1.8344790875      -26.6633417284  TIP3      6836            0.0000000000
     29085      6901  TIP3      OH2            21.5090369218        3.6832314808      -26.5287538179  TIP3      6837            0.0000000000
     29086      6901  TIP3      H1             22.1871156636        3.2402707117      -25.9626771433  TIP3      6837            0.0000000000
     29087      6901  TIP3      H2             21.0014784436        2.9419836454      -26.8775235642  TIP3      6837            0.0000000000
     29088      6902  TIP3      OH2            18.6618247569       -1.3430410409      -22.3553993453  TIP3      6838            0.0000000000
     29089      6902  TIP3      H1             18.3963896842       -0.8912028683      -23.1797765940  TIP3      6838            0.0000000000
     29090      6902  TIP3      H2             17.9187012693       -1.1671875034      -21.7488518477  TIP3      6838            0.0000000000
     29091      6903  TIP3      OH2            21.0563288643        6.3798559871      -22.3374787435  TIP3      6839            0.0000000000
     29092      6903  TIP3      H1             20.4339208487        6.9715338876      -21.9042758160  TIP3      6839            0.0000000000
     29093      6903  TIP3      H2             21.8288436752        6.9319679740      -22.4636164574  TIP3      6839            0.0000000000
     29094      6904  TIP3      OH2            18.2212142853        0.5621043491      -24.3975334771  TIP3      6840            0.0000000000
     29095      6904  TIP3      H1             18.9362449486        1.1640184401      -24.0867483962  TIP3      6840            0.0000000000
     29096      6904  TIP3      H2             18.6951427538        0.1037892302      -25.1456029218  TIP3      6840            0.0000000000
     29097      6905  TIP3      OH2            15.7202743384        7.8545523495      -30.6119723141  TIP3      6841            0.0000000000
     29098      6905  TIP3      H1             15.4826259394        8.2454870396      -31.4722959345  TIP3      6841            0.0000000000
     29099      6905  TIP3      H2             15.7855465004        8.6516469720      -30.0491879489  TIP3      6841            0.0000000000
     29100      6906  TIP3      OH2            22.6124945177       -4.0746522747      -24.9315026857  TIP3      6842            0.0000000000
     29101      6906  TIP3      H1             22.4899686955       -5.0235292969      -25.0379693938  TIP3      6842            0.0000000000
     29102      6906  TIP3      H2             21.7418979148       -3.7305356809      -24.7455154779  TIP3      6842            0.0000000000
     29103      6907  TIP3      OH2            19.9369398715        5.6050286196      -27.6436520146  TIP3      6843            0.0000000000
     29104      6907  TIP3      H1             19.6822595006        5.1918894800      -28.4946394906  TIP3      6843            0.0000000000
     29105      6907  TIP3      H2             20.5834132127        4.9501187617      -27.2753136607  TIP3      6843            0.0000000000
     29106      6908  TIP3      OH2            21.2317041817        8.9623920898      -24.9112636839  TIP3      6844            0.0000000000
     29107      6908  TIP3      H1             21.2933856423        8.4750122924      -25.7414499799  TIP3      6844            0.0000000000
     29108      6908  TIP3      H2             22.0961456332        8.7651430244      -24.5163665118  TIP3      6844            0.0000000000
     29109      6909  TIP3      OH2            20.1382075153        4.4406653250      -24.0221751692  TIP3      6845            0.0000000000
     29110      6909  TIP3      H1             20.8282731749        4.3490977105      -24.7230462992  TIP3      6845            0.0000000000
     29111      6909  TIP3      H2             20.7570695965        4.9030559654      -23.3967351554  TIP3      6845            0.0000000000
     29112      6910  TIP3      OH2            18.9403369400        4.5955756693      -30.0287517167  TIP3      6846            0.0000000000
     29113      6910  TIP3      H1             18.6631144588        5.4042972147      -30.5117577833  TIP3      6846            0.0000000000
     29114      6910  TIP3      H2             18.2539123699        3.9649616651      -30.2593506148  TIP3      6846            0.0000000000
     29115      6911  TIP3      OH2            14.8277765990        9.8693614195      -24.3662635794  TIP3      6847            0.0000000000
     29116      6911  TIP3      H1             15.7676380586        9.6656962695      -24.3155049543  TIP3      6847            0.0000000000
     29117      6911  TIP3      H2             14.7084566633       10.6451250558      -23.8156769428  TIP3      6847            0.0000000000
     29118      6912  TIP3      OH2            18.0779963057       12.6599129798      -28.1552303588  TIP3      6848            0.0000000000
     29119      6912  TIP3      H1             18.2184305265       12.2590956373      -27.2693958400  TIP3      6848            0.0000000000
     29120      6912  TIP3      H2             17.2189231967       12.2624987457      -28.3898901802  TIP3      6848            0.0000000000
     29121      6913  TIP3      OH2            20.0404843648        1.8126607815      -23.0598928568  TIP3      6849            0.0000000000
     29122      6913  TIP3      H1             19.4182048783        1.8792548981      -22.3379329362  TIP3      6849            0.0000000000
     29123      6913  TIP3      H2             20.1528829593        2.7398679003      -23.3572481979  TIP3      6849            0.0000000000
     29124      6914  TIP3      OH2            20.0333656172        1.8954876028      -28.1563466281  TIP3      6850            0.0000000000
     29125      6914  TIP3      H1             19.0806645473        1.6850366936      -28.2411521450  TIP3      6850            0.0000000000
     29126      6914  TIP3      H2             20.4013156148        1.6148425813      -29.0110362714  TIP3      6850            0.0000000000
     29127      6915  TIP3      OH2            20.9979782576       -0.6586464467      -34.3699053807  TIP3      6851            0.0000000000
     29128      6915  TIP3      H1             20.5158171929       -0.9679683641      -33.5864740061  TIP3      6851            0.0000000000
     29129      6915  TIP3      H2             20.3655149810       -0.0896784687      -34.8321874657  TIP3      6851            0.0000000000
     29130      6916  TIP3      OH2            14.4011028371       -0.7888538025      -27.2951382571  TIP3      6852            0.0000000000
     29131      6916  TIP3      H1             15.0722935573       -0.8545866538      -26.5762191100  TIP3      6852            0.0000000000
     29132      6916  TIP3      H2             14.8500911054       -1.1911941621      -28.0580623365  TIP3      6852            0.0000000000
     29133      6917  TIP3      OH2            15.6166674114       -0.1071369029      -31.9506902393  TIP3      6853            0.0000000000
     29134      6917  TIP3      H1             16.1724464791        0.4869158759      -32.4942835036  TIP3      6853            0.0000000000
     29135      6917  TIP3      H2             14.9470959451        0.5418229217      -31.6442677289  TIP3      6853            0.0000000000
     29136      6918  TIP3      OH2            22.1075485387       -0.3148293438      -26.9694589094  TIP3      6854            0.0000000000
     29137      6918  TIP3      H1             21.2994574375       -0.5750213135      -26.4933565563  TIP3      6854            0.0000000000
     29138      6918  TIP3      H2             22.7743839105       -0.3528683779      -26.2660556774  TIP3      6854            0.0000000000
     29139      6919  TIP3      OH2            17.4056326488        1.0662743174      -28.2339641339  TIP3      6855            0.0000000000
     29140      6919  TIP3      H1             16.5310689579        1.2311524671      -28.6353796562  TIP3      6855            0.0000000000
     29141      6919  TIP3      H2             17.6830964566        0.2152309603      -28.6161036735  TIP3      6855            0.0000000000
     29142      6920  TIP3      OH2            21.1501663540        1.0728644121      -30.5984173232  TIP3      6856            0.0000000000
     29143      6920  TIP3      H1             22.0355442551        1.3674196492      -30.4133728114  TIP3      6856            0.0000000000
     29144      6920  TIP3      H2             20.8015989669        1.7418481397      -31.2267453067  TIP3      6856            0.0000000000
     29145      6921  TIP3      OH2            19.8207904241        2.2258548748      -33.0076791383  TIP3      6857            0.0000000000
     29146      6921  TIP3      H1             19.2097249102        1.9071883549      -33.6974455473  TIP3      6857            0.0000000000
     29147      6921  TIP3      H2             20.5828992040        2.4895057308      -33.5445158422  TIP3      6857            0.0000000000
     29148      6922  TIP3      OH2            18.9235045015       -1.5573451294      -28.7704361639  TIP3      6858            0.0000000000
     29149      6922  TIP3      H1             18.5648801335       -2.4664078820      -28.7276900463  TIP3      6858            0.0000000000
     29150      6922  TIP3      H2             19.7039839168       -1.6746016489      -29.3198891970  TIP3      6858            0.0000000000
     29151      6923  TIP3      OH2            22.3793665135        0.2787048823      -22.7465077193  TIP3      6859            0.0000000000
     29152      6923  TIP3      H1             21.7499723629        1.0010433312      -22.9009627340  TIP3      6859            0.0000000000
     29153      6923  TIP3      H2             23.0164651251        0.8884197184      -22.2907734896  TIP3      6859            0.0000000000
     29154      6924  TIP3      OH2            22.9836472731        6.7443326661      -31.2717682399  TIP3      6860            0.0000000000
     29155      6924  TIP3      H1             22.1288399941        6.2921317516      -31.4063329867  TIP3      6860            0.0000000000
     29156      6924  TIP3      H2             22.9605519848        6.9224038096      -30.3148474368  TIP3      6860            0.0000000000
     29157      6925  TIP3      OH2            18.2206781055        6.1941287167      -25.3300882162  TIP3      6861            0.0000000000
     29158      6925  TIP3      H1             18.9032954255        6.1165404546      -26.0182709198  TIP3      6861            0.0000000000
     29159      6925  TIP3      H2             18.3814215047        5.3862402085      -24.8158550441  TIP3      6861            0.0000000000
     29160      6926  TIP3      OH2            20.5902266797        9.7061067837      -27.8198716326  TIP3      6862            0.0000000000
     29161      6926  TIP3      H1             21.0873447633       10.4747619901      -28.1364195003  TIP3      6862            0.0000000000
     29162      6926  TIP3      H2             19.7119254925        9.8975794463      -28.1747469338  TIP3      6862            0.0000000000
     29163      6927  TIP3      OH2            16.4003166939        4.4967853288      -33.3254609978  TIP3      6863            0.0000000000
     29164      6927  TIP3      H1             16.9572648782        5.1772606882      -32.9069499677  TIP3      6863            0.0000000000
     29165      6927  TIP3      H2             15.4915895778        4.7893940521      -33.1041352633  TIP3      6863            0.0000000000
     29166      6928  TIP3      OH2            21.9527566933        7.3612183415      -28.4899367777  TIP3      6864            0.0000000000
     29167      6928  TIP3      H1             21.6559781614        8.2630061240      -28.2715778186  TIP3      6864            0.0000000000
     29168      6928  TIP3      H2             21.3399333412        6.8274118403      -27.9417011234  TIP3      6864            0.0000000000
     29169      6929  TIP3      OH2            22.0805973302       11.8663947555      -22.1589250524  TIP3      6865            0.0000000000
     29170      6929  TIP3      H1             22.8151486381       12.4766149427      -22.2175251184  TIP3      6865            0.0000000000
     29171      6929  TIP3      H2             22.4968241358       11.2485534980      -21.5131969827  TIP3      6865            0.0000000000
     29172      6930  TIP3      OH2            20.7049165328       12.3814845454      -28.9113750133  TIP3      6866            0.0000000000
     29173      6930  TIP3      H1             19.7343735459       12.4063651676      -28.7261343223  TIP3      6866            0.0000000000
     29174      6930  TIP3      H2             20.9702082587       13.1723068132      -28.4253551377  TIP3      6866            0.0000000000
     29175      6931  TIP3      OH2            22.3478639769        9.7061727121      -34.8810737513  TIP3      6867            0.0000000000
     29176      6931  TIP3      H1             22.5584373779        8.8988828552      -35.3440130292  TIP3      6867            0.0000000000
     29177      6931  TIP3      H2             22.0901080511        9.3372433494      -34.0074837516  TIP3      6867            0.0000000000
     29178      6932  TIP3      OH2            21.2377320254        9.1960271976      -32.3073977948  TIP3      6868            0.0000000000
     29179      6932  TIP3      H1             21.5529165912        8.6414653192      -31.5812237668  TIP3      6868            0.0000000000
     29180      6932  TIP3      H2             21.3390057922       10.1135367989      -31.9736257895  TIP3      6868            0.0000000000
     29181      6933  TIP3      OH2            17.8028269189        6.4392072820      -31.8255312399  TIP3      6869            0.0000000000
     29182      6933  TIP3      H1             17.0847422716        6.8477092346      -31.3044816434  TIP3      6869            0.0000000000
     29183      6933  TIP3      H2             18.2865912665        7.2177701320      -32.1513520135  TIP3      6869            0.0000000000
     29184      6934  TIP3      OH2            21.3864647702       11.8720097989      -31.6344739270  TIP3      6870            0.0000000000
     29185      6934  TIP3      H1             21.4913656950       12.6849907285      -32.1932018646  TIP3      6870            0.0000000000
     29186      6934  TIP3      H2             21.1482445799       12.2302761045      -30.7553619824  TIP3      6870            0.0000000000
     29187      6935  TIP3      OH2            19.9019824478       -1.3355317044      -31.9952928465  TIP3      6871            0.0000000000
     29188      6935  TIP3      H1             19.9446219661       -0.4474623525      -31.6023322697  TIP3      6871            0.0000000000
     29189      6935  TIP3      H2             20.8321589330       -1.6136586663      -31.8067327218  TIP3      6871            0.0000000000
     29190      6936  TIP3      OH2            18.3193139222        9.0417459292      -33.0031865743  TIP3      6872            0.0000000000
     29191      6936  TIP3      H1             19.0252554747        9.6135715207      -32.6544968262  TIP3      6872            0.0000000000
     29192      6936  TIP3      H2             18.8553034160        8.5610849723      -33.6628331798  TIP3      6872            0.0000000000
     29193      6937  TIP3      OH2            16.6564992378        1.7274447726      -33.8281436994  TIP3      6873            0.0000000000
     29194      6937  TIP3      H1             16.6945510268        2.6792747315      -33.6029277270  TIP3      6873            0.0000000000
     29195      6937  TIP3      H2             15.7605955826        1.5875886790      -34.1489878885  TIP3      6873            0.0000000000
     29196      6938  TIP3      OH2            17.4775163622       -3.5081587699      -25.0698402445  TIP3      6874            0.0000000000
     29197      6938  TIP3      H1             17.3338697112       -3.4683016612      -26.0343911959  TIP3      6874            0.0000000000
     29198      6938  TIP3      H2             17.0961021316       -4.3722518116      -24.8332920066  TIP3      6874            0.0000000000
     29199      6939  TIP3      OH2            16.4401625904       10.4256283995      -28.9231922291  TIP3      6875            0.0000000000
     29200      6939  TIP3      H1             15.5717232809       10.8431546926      -28.9958772090  TIP3      6875            0.0000000000
     29201      6939  TIP3      H2             16.8818538348       10.8571032579      -29.6659257084  TIP3      6875            0.0000000000
     29202      6940  TIP3      OH2            19.8397724928        7.1346087473      -34.6518136241  TIP3      6876            0.0000000000
     29203      6940  TIP3      H1             19.9986707935        6.4473435634      -33.9887179828  TIP3      6876            0.0000000000
     29204      6940  TIP3      H2             20.6332152539        7.0548860016      -35.1929099268  TIP3      6876            0.0000000000
     29205      6941  TIP3      OH2            20.9885442336        5.1964495139      -32.2171376594  TIP3      6877            0.0000000000
     29206      6941  TIP3      H1             20.4935504865        4.6463445145      -31.5944255111  TIP3      6877            0.0000000000
     29207      6941  TIP3      H2             21.3747949984        4.5630473778      -32.8581465945  TIP3      6877            0.0000000000
     29208      6942  TIP3      OH2            22.1997746087        3.5389245134      -34.0490166923  TIP3      6878            0.0000000000
     29209      6942  TIP3      H1             21.9370973968        3.1974164420      -34.9225434442  TIP3      6878            0.0000000000
     29210      6942  TIP3      H2             23.1583138665        3.4337622592      -34.0437963152  TIP3      6878            0.0000000000
     29211      6943  TIP3      OH2            22.1354641274        4.2955547158      -21.1440046942  TIP3      6879            0.0000000000
     29212      6943  TIP3      H1             22.8975641075        3.8238893368      -21.5661865315  TIP3      6879            0.0000000000
     29213      6943  TIP3      H2             22.1969073777        5.1197461664      -21.6441635231  TIP3      6879            0.0000000000
     29214      6944  TIP3      OH2            22.0403610854       14.1733487033      -32.9078794724  TIP3      6880            0.0000000000
     29215      6944  TIP3      H1             23.0028228926       14.2222026004      -32.9181900782  TIP3      6880            0.0000000000
     29216      6944  TIP3      H2             21.8907159624       14.7110964854      -33.7021632004  TIP3      6880            0.0000000000
     29217      6945  TIP3      OH2            15.5469701608        8.6965003020      -33.4511655509  TIP3      6881            0.0000000000
     29218      6945  TIP3      H1             16.5128961781        8.8003668694      -33.2913136278  TIP3      6881            0.0000000000
     29219      6945  TIP3      H2             15.5745860277        8.0718904381      -34.2161004302  TIP3      6881            0.0000000000
     29220      6946  TIP3      OH2            14.3591740152       14.0640289273      -28.5246852115  TIP3      6882            0.0000000000
     29221      6946  TIP3      H1             13.6206182277       13.5773294683      -28.9559229560  TIP3      6882            0.0000000000
     29222      6946  TIP3      H2             14.6280441437       13.4346754144      -27.8291649356  TIP3      6882            0.0000000000
     29223      6947  TIP3      OH2            15.1744388474       12.2398613957      -26.6235955665  TIP3      6883            0.0000000000
     29224      6947  TIP3      H1             14.8203109757       11.3599514943      -26.4259975781  TIP3      6883            0.0000000000
     29225      6947  TIP3      H2             15.4192037204       12.5692035631      -25.7402251644  TIP3      6883            0.0000000000
     29226      6948  TIP3      OH2            15.2360336959        5.2494331931      -24.1216955447  TIP3      6884            0.0000000000
     29227      6948  TIP3      H1             15.3921458613        5.2602652158      -25.0881909460  TIP3      6884            0.0000000000
     29228      6948  TIP3      H2             16.1369189031        5.1561856386      -23.7701330786  TIP3      6884            0.0000000000
     29229      6949  TIP3      OH2            16.0594565978       -1.0800229531      -25.1799597838  TIP3      6885            0.0000000000
     29230      6949  TIP3      H1             16.4508474067       -1.9322237648      -24.8868860151  TIP3      6885            0.0000000000
     29231      6949  TIP3      H2             16.6292096264       -0.4412786592      -24.7351833986  TIP3      6885            0.0000000000
     29232      6950  TIP3      OH2            14.3070414483        1.8866556502      -24.0597163643  TIP3      6886            0.0000000000
     29233      6950  TIP3      H1             14.8529930563        1.6166221793      -24.8213828714  TIP3      6886            0.0000000000
     29234      6950  TIP3      H2             14.7699564806        2.7071347511      -23.8353217589  TIP3      6886            0.0000000000
     29235      6951  TIP3      OH2            14.7094830066       -1.8016110589      -29.9946338640  TIP3      6887            0.0000000000
     29236      6951  TIP3      H1             13.7632455339       -1.6809641202      -30.1669512738  TIP3      6887            0.0000000000
     29237      6951  TIP3      H2             15.1013405963       -1.3299325763      -30.7491442284  TIP3      6887            0.0000000000
     29238      6952  TIP3      OH2            14.6014706882       -3.2149183660      -21.7629669526  TIP3      6888            0.0000000000
     29239      6952  TIP3      H1             14.0315008976       -3.2113985192      -21.0046352127  TIP3      6888            0.0000000000
     29240      6952  TIP3      H2             14.2293408751       -2.4770859006      -22.2841857145  TIP3      6888            0.0000000000
     29241      6953  TIP3      OH2            17.1030001708       14.2484226283      -21.3037762310  TIP3      6889            0.0000000000
     29242      6953  TIP3      H1             16.4069129212       14.8128144604      -21.6847163514  TIP3      6889            0.0000000000
     29243      6953  TIP3      H2             16.8120318483       14.1141501135      -20.4028675395  TIP3      6889            0.0000000000
     29244      6954  TIP3      OH2            19.6293183985       13.8970976421      -22.2175958099  TIP3      6890            0.0000000000
     29245      6954  TIP3      H1             18.7332857194       14.0281230187      -21.8529332728  TIP3      6890            0.0000000000
     29246      6954  TIP3      H2             19.6050184496       14.4592468144      -23.0061167645  TIP3      6890            0.0000000000
     29247      6955  TIP3      OH2            16.7346517566       12.9174588363      -24.4363404658  TIP3      6891            0.0000000000
     29248      6955  TIP3      H1             16.6714853001       12.5119125754      -23.5638202608  TIP3      6891            0.0000000000
     29249      6955  TIP3      H2             17.5554846968       12.5010974503      -24.7636471546  TIP3      6891            0.0000000000
     29250      6956  TIP3      OH2            18.7798676350       11.6262597733      -25.7153383786  TIP3      6892            0.0000000000
     29251      6956  TIP3      H1             18.6349820085       10.6967952288      -25.4414961401  TIP3      6892            0.0000000000
     29252      6956  TIP3      H2             19.6330336931       11.7975437165      -25.2644299033  TIP3      6892            0.0000000000
     29253      6957  TIP3      OH2            21.3555968608       12.0715968950      -24.8200424943  TIP3      6893            0.0000000000
     29254      6957  TIP3      H1             21.5379062570       11.1444191880      -25.0323875104  TIP3      6893            0.0000000000
     29255      6957  TIP3      H2             21.3437422184       12.0513562965      -23.8320471436  TIP3      6893            0.0000000000
     29256      6958  TIP3      OH2            17.2070691996       -3.6395350541      -27.8531389558  TIP3      6894            0.0000000000
     29257      6958  TIP3      H1             16.3996801522       -3.7969088319      -28.3711559410  TIP3      6894            0.0000000000
     29258      6958  TIP3      H2             17.6282127165       -4.5174637248      -27.9030837676  TIP3      6894            0.0000000000
     29259      6959  TIP3      OH2            15.9346472406       -3.8827984979      -32.1444014425  TIP3      6895            0.0000000000
     29260      6959  TIP3      H1             16.4534211324       -3.2300247433      -32.6484018496  TIP3      6895            0.0000000000
     29261      6959  TIP3      H2             15.3956984786       -3.3121958462      -31.5731415411  TIP3      6895            0.0000000000
     29262      6960  TIP3      OH2            21.5004501568       -3.4924300243      -27.9496629032  TIP3      6896            0.0000000000
     29263      6960  TIP3      H1             22.4452929546       -3.3998858046      -28.1504241939  TIP3      6896            0.0000000000
     29264      6960  TIP3      H2             21.5507084723       -3.8907340633      -27.0838421674  TIP3      6896            0.0000000000
     29265      6961  TIP3      OH2            15.8349408785       12.0641578338      -31.0413675414  TIP3      6897            0.0000000000
     29266      6961  TIP3      H1             15.1937768444       12.0373290509      -31.7750730902  TIP3      6897            0.0000000000
     29267      6961  TIP3      H2             15.8480774363       13.0234139055      -30.9113080805  TIP3      6897            0.0000000000
     29268      6962  TIP3      OH2            17.7747888048       -1.9326041590      -33.6020384214  TIP3      6898            0.0000000000
     29269      6962  TIP3      H1             18.3235435338       -2.5276065079      -34.1359508424  TIP3      6898            0.0000000000
     29270      6962  TIP3      H2             18.4403680568       -1.5836202273      -32.9764124004  TIP3      6898            0.0000000000
     29271      6963  TIP3      OH2            22.3968831688       -1.5418828767      -31.5535216242  TIP3      6899            0.0000000000
     29272      6963  TIP3      H1             22.7933545337       -2.2763123720      -31.0611610034  TIP3      6899            0.0000000000
     29273      6963  TIP3      H2             22.7226931167       -0.7863262018      -31.0535390127  TIP3      6899            0.0000000000
     29274      6964  TIP3      OH2            17.6485053027       13.0639528941      -34.1305904708  TIP3      6900            0.0000000000
     29275      6964  TIP3      H1             17.3770773579       13.3185124088      -33.2344419729  TIP3      6900            0.0000000000
     29276      6964  TIP3      H2             18.4351757315       12.5025371893      -33.9741031396  TIP3      6900            0.0000000000
     29277      6965  TIP3      OH2           -20.2650209088       23.0110528515      -22.8963527304  TIP3      6901            0.0000000000
     29278      6965  TIP3      H1            -20.1502658587       22.5687673923      -22.0641630435  TIP3      6901            0.0000000000
     29279      6965  TIP3      H2            -19.6610842010       23.7671073895      -22.8528003811  TIP3      6901            0.0000000000
     29280      6966  TIP3      OH2           -22.6082292169       21.3853111823      -29.0383930447  TIP3      6902            0.0000000000
     29281      6966  TIP3      H1            -23.0971395334       22.2030025090      -28.9993706087  TIP3      6902            0.0000000000
     29282      6966  TIP3      H2            -23.2417841315       20.7430361386      -29.3510714622  TIP3      6902            0.0000000000
     29283      6967  TIP3      OH2            -5.5687476214       17.6759503691      -23.2559693378  TIP3      6903            0.0000000000
     29284      6967  TIP3      H1             -5.5269525410       18.3101221004      -22.5435941686  TIP3      6903            0.0000000000
     29285      6967  TIP3      H2             -5.0301352066       18.1027245647      -23.9334452223  TIP3      6903            0.0000000000
     29286      6968  TIP3      OH2           -11.0742977675       20.5032810609      -23.6566976862  TIP3      6904            0.0000000000
     29287      6968  TIP3      H1            -10.8311055088       19.5581567178      -23.6704696993  TIP3      6904            0.0000000000
     29288      6968  TIP3      H2            -11.1557448974       20.6719771315      -24.6133900501  TIP3      6904            0.0000000000
     29289      6969  TIP3      OH2           -17.9651290008       18.5977827447      -26.4599389455  TIP3      6905            0.0000000000
     29290      6969  TIP3      H1            -17.8495914764       19.4299062945      -26.9604777746  TIP3      6905            0.0000000000
     29291      6969  TIP3      H2            -18.3308569064       18.0279595832      -27.1713120794  TIP3      6905            0.0000000000
     29292      6970  TIP3      OH2           -10.1885532077       18.6689873131      -28.1120238582  TIP3      6906            0.0000000000
     29293      6970  TIP3      H1             -9.5750698633       18.3321948005      -27.4187030451  TIP3      6906            0.0000000000
     29294      6970  TIP3      H2             -9.5948645373       19.2619461410      -28.5921090621  TIP3      6906            0.0000000000
     29295      6971  TIP3      OH2           -21.2224883780       20.9465927919      -25.8148734308  TIP3      6907            0.0000000000
     29296      6971  TIP3      H1            -20.5973905080       20.3573560425      -25.3679549706  TIP3      6907            0.0000000000
     29297      6971  TIP3      H2            -21.1769770322       20.6029366127      -26.7187239928  TIP3      6907            0.0000000000
     29298      6972  TIP3      OH2           -16.2044642896       22.3288707915      -26.3658001823  TIP3      6908            0.0000000000
     29299      6972  TIP3      H1            -15.4898671324       21.7292924082      -26.0916011988  TIP3      6908            0.0000000000
     29300      6972  TIP3      H2            -16.7029693428       21.7789979569      -27.0052380899  TIP3      6908            0.0000000000
     29301      6973  TIP3      OH2           -18.9911929169       17.4699749140      -22.5004455633  TIP3      6909            0.0000000000
     29302      6973  TIP3      H1            -19.3166643366       18.0424907514      -23.2237526103  TIP3      6909            0.0000000000
     29303      6973  TIP3      H2            -19.6697855067       17.5826513438      -21.8250780002  TIP3      6909            0.0000000000
     29304      6974  TIP3      OH2            -8.4069550405       17.9941586450      -26.1247880309  TIP3      6910            0.0000000000
     29305      6974  TIP3      H1             -8.5839346973       17.2560473465      -25.5282717678  TIP3      6910            0.0000000000
     29306      6974  TIP3      H2             -7.7631157137       18.4989544032      -25.5918579279  TIP3      6910            0.0000000000
     29307      6975  TIP3      OH2           -19.5182772878       19.3408206905      -24.3967488063  TIP3      6911            0.0000000000
     29308      6975  TIP3      H1            -18.8386980647       19.9749202696      -24.0872079053  TIP3      6911            0.0000000000
     29309      6975  TIP3      H2            -18.9986189350       18.9343235463      -25.1424309333  TIP3      6911            0.0000000000
     29310      6976  TIP3      OH2            -8.1372454545       16.7057119456      -22.4822952846  TIP3      6912            0.0000000000
     29311      6976  TIP3      H1             -8.8105941332       17.3672806374      -22.6037532719  TIP3      6912            0.0000000000
     29312      6976  TIP3      H2             -7.3285908027       17.0866115930      -22.8656193823  TIP3      6912            0.0000000000
     29313      6977  TIP3      OH2           -15.1418536293       14.8413804148      -25.0017527364  TIP3      6913            0.0000000000
     29314      6977  TIP3      H1            -15.2942157454       13.8823801704      -25.0629388023  TIP3      6913            0.0000000000
     29315      6977  TIP3      H2            -15.9890373026       15.1523824819      -24.6177528735  TIP3      6913            0.0000000000
     29316      6978  TIP3      OH2           -12.7499303636       22.1007750843      -33.5158039809  TIP3      6914            0.0000000000
     29317      6978  TIP3      H1            -12.0557519851       22.1929822333      -32.8308442796  TIP3      6914            0.0000000000
     29318      6978  TIP3      H2            -12.3972279239       21.3979510948      -34.0644662059  TIP3      6914            0.0000000000
     29319      6979  TIP3      OH2            -5.5536359811       22.9484140335      -22.3641413398  TIP3      6915            0.0000000000
     29320      6979  TIP3      H1             -6.0019042279       23.7895765377      -22.2246878162  TIP3      6915            0.0000000000
     29321      6979  TIP3      H2             -4.8876618754       23.1763916045      -23.0254860636  TIP3      6915            0.0000000000
     29322      6980  TIP3      OH2           -17.0932481665      -23.8478545222      -23.7842815961  TIP3      6916            0.0000000000
     29323      6980  TIP3      H1            -17.0017205392      -23.6739778738      -24.7502852217  TIP3      6916            0.0000000000
     29324      6980  TIP3      H2            -17.1486623062      -22.9265752562      -23.5081198815  TIP3      6916            0.0000000000
     29325      6981  TIP3      OH2           -10.4706412315       22.8296052607      -32.1237751442  TIP3      6917            0.0000000000
     29326      6981  TIP3      H1            -10.1078147994       23.0112475407      -31.2520877149  TIP3      6917            0.0000000000
     29327      6981  TIP3      H2            -10.1399456422       23.5391180278      -32.6822303806  TIP3      6917            0.0000000000
     29328      6982  TIP3      OH2            -6.7955303365       14.7250606984      -31.9868060554  TIP3      6918            0.0000000000
     29329      6982  TIP3      H1             -7.6994883493       14.9896213341      -31.7006088114  TIP3      6918            0.0000000000
     29330      6982  TIP3      H2             -6.4799542626       15.5708942342      -32.3752123040  TIP3      6918            0.0000000000
     29331      6983  TIP3      OH2           -17.6969632445       15.7922398027      -24.3156077470  TIP3      6919            0.0000000000
     29332      6983  TIP3      H1            -18.6193663071       15.6350392259      -24.6248236740  TIP3      6919            0.0000000000
     29333      6983  TIP3      H2            -17.8426307195       16.5510225138      -23.7306025508  TIP3      6919            0.0000000000
     29334      6984  TIP3      OH2           -13.3932948595       17.9334417647      -33.5456961947  TIP3      6920            0.0000000000
     29335      6984  TIP3      H1            -13.7431910222       17.9103410963      -32.6420410828  TIP3      6920            0.0000000000
     29336      6984  TIP3      H2            -13.7628815982       17.0948056209      -33.8750340568  TIP3      6920            0.0000000000
     29337      6985  TIP3      OH2           -17.6421330103       20.5585732499      -22.9499646584  TIP3      6921            0.0000000000
     29338      6985  TIP3      H1            -18.2827831588       20.6678746722      -22.2564836182  TIP3      6921            0.0000000000
     29339      6985  TIP3      H2            -17.5888991472       21.4532596185      -23.3728090016  TIP3      6921            0.0000000000
     29340      6986  TIP3      OH2           -17.6398963409       20.7493168576      -28.1095008829  TIP3      6922            0.0000000000
     29341      6986  TIP3      H1            -18.6008040630       20.5633415939      -28.2604826887  TIP3      6922            0.0000000000
     29342      6986  TIP3      H2            -17.3057787555       20.4938123096      -28.9891394090  TIP3      6922            0.0000000000
     29343      6987  TIP3      OH2           -11.9329221005       21.4661819916      -29.2370391881  TIP3      6923            0.0000000000
     29344      6987  TIP3      H1            -12.6303678527       21.9954883862      -29.6556783469  TIP3      6923            0.0000000000
     29345      6987  TIP3      H2            -11.4798845765       21.0718420143      -30.0059359905  TIP3      6923            0.0000000000
     29346      6988  TIP3      OH2           -11.1485632127       20.7852370235      -26.4835684987  TIP3      6924            0.0000000000
     29347      6988  TIP3      H1            -11.4219345905       21.2541434156      -27.2887008345  TIP3      6924            0.0000000000
     29348      6988  TIP3      H2            -11.0099771218       19.8900284949      -26.8645985361  TIP3      6924            0.0000000000
     29349      6989  TIP3      OH2           -16.6595254231       18.3325917893      -34.4651176064  TIP3      6925            0.0000000000
     29350      6989  TIP3      H1            -17.0776694971       17.9729499837      -33.6567409679  TIP3      6925            0.0000000000
     29351      6989  TIP3      H2            -17.3803479547       18.7762543342      -34.9229076658  TIP3      6925            0.0000000000
     29352      6990  TIP3      OH2           -22.1294163591       18.1813291458      -27.5679216426  TIP3      6926            0.0000000000
     29353      6990  TIP3      H1            -22.3849623986       17.9475014444      -26.6608479565  TIP3      6926            0.0000000000
     29354      6990  TIP3      H2            -22.7381510504       17.6278181616      -28.0684497147  TIP3      6926            0.0000000000
     29355      6991  TIP3      OH2           -22.0222272090       18.8803743902      -31.8230642602  TIP3      6927            0.0000000000
     29356      6991  TIP3      H1            -21.5113291321       19.3402777958      -32.5296743373  TIP3      6927            0.0000000000
     29357      6991  TIP3      H2            -22.7640909147       19.4718343045      -31.7450000076  TIP3      6927            0.0000000000
     29358      6992  TIP3      OH2           -15.1091332567       18.3732878980      -27.0704799835  TIP3      6928            0.0000000000
     29359      6992  TIP3      H1            -16.0458319221       18.3612681290      -26.7858386058  TIP3      6928            0.0000000000
     29360      6992  TIP3      H2            -14.6350130820       18.2251494126      -26.2372815916  TIP3      6928            0.0000000000
     29361      6993  TIP3      OH2           -20.1353375710       19.9385882883      -28.2893092423  TIP3      6929            0.0000000000
     29362      6993  TIP3      H1            -21.0790607861       20.0527397204      -28.5201406773  TIP3      6929            0.0000000000
     29363      6993  TIP3      H2            -19.9976135433       19.0227758246      -28.5948985637  TIP3      6929            0.0000000000
     29364      6994  TIP3      OH2           -16.6440379108       19.9740899448      -30.6152079215  TIP3      6930            0.0000000000
     29365      6994  TIP3      H1            -15.6920983603       20.0761385737      -30.4544209852  TIP3      6930            0.0000000000
     29366      6994  TIP3      H2            -16.8603989280       20.6492790235      -31.2880687359  TIP3      6930            0.0000000000
     29367      6995  TIP3      OH2           -10.6902657717       17.6783689286      -23.8525035509  TIP3      6931            0.0000000000
     29368      6995  TIP3      H1            -11.3867013663       17.7096394885      -23.1632124081  TIP3      6931            0.0000000000
     29369      6995  TIP3      H2            -11.1458339438       17.3044692123      -24.6188181344  TIP3      6931            0.0000000000
     29370      6996  TIP3      OH2           -18.0000490094       21.1573596330      -33.0669213933  TIP3      6932            0.0000000000
     29371      6996  TIP3      H1            -18.4451305898       20.7371783170      -33.8106024598  TIP3      6932            0.0000000000
     29372      6996  TIP3      H2            -17.1191959154       21.3635052495      -33.4390091503  TIP3      6932            0.0000000000
     29373      6997  TIP3      OH2           -13.8964568679       21.0530955880      -25.2912998208  TIP3      6933            0.0000000000
     29374      6997  TIP3      H1            -13.1926569650       20.5901345239      -25.7547966933  TIP3      6933            0.0000000000
     29375      6997  TIP3      H2            -13.9357897540       20.5868340710      -24.4436871608  TIP3      6933            0.0000000000
     29376      6998  TIP3      OH2           -18.8287949819       17.2636923485      -28.7707168841  TIP3      6934            0.0000000000
     29377      6998  TIP3      H1            -19.1417779163       16.3438224196      -28.7397807971  TIP3      6934            0.0000000000
     29378      6998  TIP3      H2            -18.0290702641       17.1814945089      -29.3062719679  TIP3      6934            0.0000000000
     29379      6999  TIP3      OH2           -15.1473932480       19.4527264299      -22.8012724389  TIP3      6935            0.0000000000
     29380      6999  TIP3      H1            -15.9581585281       19.9864311363      -22.7316233910  TIP3      6935            0.0000000000
     29381      6999  TIP3      H2            -14.6132944270       19.7454862579      -22.0624041649  TIP3      6935            0.0000000000
     29382      7000  TIP3      OH2           -10.7382932253       18.5031013620      -32.8997337606  TIP3      6936            0.0000000000
     29383      7000  TIP3      H1            -11.6885143519       18.6383084891      -33.0693701477  TIP3      6936            0.0000000000
     29384      7000  TIP3      H2            -10.4279709436       19.3733344667      -32.5807237972  TIP3      6936            0.0000000000
     29385      7001  TIP3      OH2           -10.0272835313       20.4325588151      -31.2473270767  TIP3      6937            0.0000000000
     29386      7001  TIP3      H1             -9.1366005385       20.2195286963      -30.8922336945  TIP3      6937            0.0000000000
     29387      7001  TIP3      H2             -9.8740161918       21.2058891471      -31.8175072488  TIP3      6937            0.0000000000
     29388      7002  TIP3      OH2            -5.1839336818       20.5261386547      -31.4826646206  TIP3      6938            0.0000000000
     29389      7002  TIP3      H1             -5.6910861688       20.2479182524      -32.2677685721  TIP3      6938            0.0000000000
     29390      7002  TIP3      H2             -5.1069489398       21.4712836254      -31.7032534671  TIP3      6938            0.0000000000
     29391      7003  TIP3      OH2           -21.3539408986      -23.5176928529      -33.7128907091  TIP3      6939            0.0000000000
     29392      7003  TIP3      H1            -20.6658988720      -23.0900341162      -33.1785699156  TIP3      6939            0.0000000000
     29393      7003  TIP3      H2            -22.1280933484      -23.2414836893      -33.1874663425  TIP3      6939            0.0000000000
     29394      7004  TIP3      OH2           -12.0622390111       17.9401095686      -21.5222933112  TIP3      6940            0.0000000000
     29395      7004  TIP3      H1            -11.3953522471       18.0179470159      -20.8315245222  TIP3      6940            0.0000000000
     29396      7004  TIP3      H2            -12.5367549377       17.1368678960      -21.3060861311  TIP3      6940            0.0000000000
     29397      7005  TIP3      OH2           -11.3534856294       17.5194177013      -30.3948111410  TIP3      6941            0.0000000000
     29398      7005  TIP3      H1            -11.1302628549       17.9428873787      -31.2455129344  TIP3      6941            0.0000000000
     29399      7005  TIP3      H2            -10.7914480837       18.0076074137      -29.7731869720  TIP3      6941            0.0000000000
     29400      7006  TIP3      OH2           -14.1129789181       19.2705174675      -29.6005977914  TIP3      6942            0.0000000000
     29401      7006  TIP3      H1            -13.3740318798       19.8874264441      -29.5383432206  TIP3      6942            0.0000000000
     29402      7006  TIP3      H2            -14.4343717543       19.1749265185      -28.6812053479  TIP3      6942            0.0000000000
     29403      7007  TIP3      OH2           -13.3138547763       16.3390722495      -28.7964757119  TIP3      6943            0.0000000000
     29404      7007  TIP3      H1            -13.6266112124       16.9702786102      -28.1246575709  TIP3      6943            0.0000000000
     29405      7007  TIP3      H2            -12.5816646477       16.8801834680      -29.1855655002  TIP3      6943            0.0000000000
     29406      7008  TIP3      OH2           -17.6008039663       17.4427131282      -32.0313293481  TIP3      6944            0.0000000000
     29407      7008  TIP3      H1            -17.6746663206       18.3292274235      -31.6238804183  TIP3      6944            0.0000000000
     29408      7008  TIP3      H2            -16.7013418635       17.1950193972      -31.7397804887  TIP3      6944            0.0000000000
     29409      7009  TIP3      OH2            -8.8089087833       21.7871352206      -25.7313408419  TIP3      6945            0.0000000000
     29410      7009  TIP3      H1             -9.7027695501       21.3992607010      -25.7526420169  TIP3      6945            0.0000000000
     29411      7009  TIP3      H2             -8.3892537947       21.2119714969      -25.0491998857  TIP3      6945            0.0000000000
     29412      7010  TIP3      OH2           -21.1252826443       20.5111811240      -33.8915043520  TIP3      6946            0.0000000000
     29413      7010  TIP3      H1            -21.0935595999       21.4559554300      -33.6596352300  TIP3      6946            0.0000000000
     29414      7010  TIP3      H2            -22.0148519825       20.3887405078      -34.2354488338  TIP3      6946            0.0000000000
     29415      7011  TIP3      OH2           -20.2249935430       15.3503864653      -25.0812233470  TIP3      6947            0.0000000000
     29416      7011  TIP3      H1            -20.3737309124       15.3764294511      -26.0529536765  TIP3      6947            0.0000000000
     29417      7011  TIP3      H2            -20.6556928845       14.4855069624      -24.8829990514  TIP3      6947            0.0000000000
     29418      7012  TIP3      OH2           -15.5398864000       22.0911737938      -33.8114806186  TIP3      6948            0.0000000000
     29419      7012  TIP3      H1            -15.7033544231       22.1329584068      -34.7811018855  TIP3      6948            0.0000000000
     29420      7012  TIP3      H2            -14.6005611792       22.3593576648      -33.7996995143  TIP3      6948            0.0000000000
     29421      7013  TIP3      OH2           -16.5185727519       17.6318482402      -21.2085469066  TIP3      6949            0.0000000000
     29422      7013  TIP3      H1            -15.9980736766       17.9988733624      -21.9396698002  TIP3      6949            0.0000000000
     29423      7013  TIP3      H2            -17.3743931465       17.5103121172      -21.6472673478  TIP3      6949            0.0000000000
     29424      7014  TIP3      OH2            -6.6787818348       20.6044619313      -33.8640560484  TIP3      6950            0.0000000000
     29425      7014  TIP3      H1             -6.5370819844       21.2625800958      -34.5605585756  TIP3      6950            0.0000000000
     29426      7014  TIP3      H2             -6.7995756929       19.7771631361      -34.3745117342  TIP3      6950            0.0000000000
     29427      7015  TIP3      OH2            -7.5185705680       22.1210809811      -28.2005998774  TIP3      6951            0.0000000000
     29428      7015  TIP3      H1             -7.6312382781       21.1600445107      -28.3121723251  TIP3      6951            0.0000000000
     29429      7015  TIP3      H2             -7.7771606382       22.1970832737      -27.2677846605  TIP3      6951            0.0000000000
     29430      7016  TIP3      OH2            -7.3872330211       18.1553160314      -34.7433971320  TIP3      6952            0.0000000000
     29431      7016  TIP3      H1             -6.7997595590       17.7056984171      -34.1090343102  TIP3      6952            0.0000000000
     29432      7016  TIP3      H2             -8.2411381142       17.7191646897      -34.6005238275  TIP3      6952            0.0000000000
     29433      7017  TIP3      OH2            -7.8700794268       19.7299668481      -29.7131182681  TIP3      6953            0.0000000000
     29434      7017  TIP3      H1             -7.5894077437       18.7953614501      -29.5857301601  TIP3      6953            0.0000000000
     29435      7017  TIP3      H2             -7.0355234019       20.0684716048      -30.0679548946  TIP3      6953            0.0000000000
     29436      7018  TIP3      OH2            -7.1931198636       20.1707801794      -24.2532874061  TIP3      6954            0.0000000000
     29437      7018  TIP3      H1             -6.2425436868       20.4180602616      -24.3060288635  TIP3      6954            0.0000000000
     29438      7018  TIP3      H2             -7.3675304696       20.3342998196      -23.3183491610  TIP3      6954            0.0000000000
     29439      7019  TIP3      OH2            -7.0907613197       20.9535417404      -21.5080256521  TIP3      6955            0.0000000000
     29440      7019  TIP3      H1             -7.9614282077       21.2243512171      -21.2068229130  TIP3      6955            0.0000000000
     29441      7019  TIP3      H2             -6.5962267340       21.7579518016      -21.7749066995  TIP3      6955            0.0000000000
     29442      7020  TIP3      OH2            -7.1286024184       16.9301129018      -29.7237994554  TIP3      6956            0.0000000000
     29443      7020  TIP3      H1             -6.9118128758       16.5524354809      -28.8374356602  TIP3      6956            0.0000000000
     29444      7020  TIP3      H2             -7.7597234019       16.3026705168      -30.1061213840  TIP3      6956            0.0000000000
     29445      7021  TIP3      OH2           -21.6970142406       17.7385034961      -24.9726541855  TIP3      6957            0.0000000000
     29446      7021  TIP3      H1            -21.2165041343       16.9008085827      -24.8498997745  TIP3      6957            0.0000000000
     29447      7021  TIP3      H2            -21.0659819570       18.4121922143      -24.7087523328  TIP3      6957            0.0000000000
     29448      7022  TIP3      OH2           -23.4106068615       20.9721573335      -24.3158143316  TIP3      6958            0.0000000000
     29449      7022  TIP3      H1            -22.7545759583       20.5353474926      -24.8926091565  TIP3      6958            0.0000000000
     29450      7022  TIP3      H2            -22.8410083149       21.6438137840      -23.9339987974  TIP3      6958            0.0000000000
     29451      7023  TIP3      OH2            -5.3498338670       16.9277551219      -33.1242563785  TIP3      6959            0.0000000000
     29452      7023  TIP3      H1             -4.9251346276       16.2605568387      -33.7042998351  TIP3      6959            0.0000000000
     29453      7023  TIP3      H2             -4.6465186177       17.5948914066      -33.0675782316  TIP3      6959            0.0000000000
     29454      7024  TIP3      OH2           -22.6443069144       16.8717835607      -29.7895749503  TIP3      6960            0.0000000000
     29455      7024  TIP3      H1            -23.5777435333       17.0897354090      -29.6987867779  TIP3      6960            0.0000000000
     29456      7024  TIP3      H2            -22.3425037468       17.4527651329      -30.5219948647  TIP3      6960            0.0000000000
     29457      7025  TIP3      OH2           -12.9046945911       16.6414662324      -25.7441426678  TIP3      6961            0.0000000000
     29458      7025  TIP3      H1            -13.5894489624       16.0306261987      -25.4107815926  TIP3      6961            0.0000000000
     29459      7025  TIP3      H2            -12.3538389240       16.0501081346      -26.2698434489  TIP3      6961            0.0000000000
     29460      7026  TIP3      OH2            -7.7470316798       14.5597978694      -25.7319660960  TIP3      6962            0.0000000000
     29461      7026  TIP3      H1             -7.1548094848       15.2404873785      -26.1227032499  TIP3      6962            0.0000000000
     29462      7026  TIP3      H2             -8.6247042556       14.9922333976      -25.7965774057  TIP3      6962            0.0000000000
     29463      7027  TIP3      OH2            -6.1011739383       15.9503305025      -27.3849965587  TIP3      6963            0.0000000000
     29464      7027  TIP3      H1             -5.4067222977       15.3435761826      -27.7282023489  TIP3      6963            0.0000000000
     29465      7027  TIP3      H2             -5.5730874955       16.7689023530      -27.2497603913  TIP3      6963            0.0000000000
     29466      7028  TIP3      OH2           -20.4947151760       15.1680580134      -27.8187300100  TIP3      6964            0.0000000000
     29467      7028  TIP3      H1            -21.2876106351       15.0527889675      -28.3741173868  TIP3      6964            0.0000000000
     29468      7028  TIP3      H2            -20.0452468183       14.3068079380      -27.9272151146  TIP3      6964            0.0000000000
     29469      7029  TIP3      OH2           -21.6934491625       14.9450209249      -32.0864903061  TIP3      6965            0.0000000000
     29470      7029  TIP3      H1            -21.2978591690       15.6060741369      -32.6802356374  TIP3      6965            0.0000000000
     29471      7029  TIP3      H2            -22.2853866366       15.5072492371      -31.5744156842  TIP3      6965            0.0000000000
     29472      7030  TIP3      OH2           -16.0888595954       15.1288200267      -28.0139026523  TIP3      6966            0.0000000000
     29473      7030  TIP3      H1            -15.2021719761       15.5034324733      -28.1610340725  TIP3      6966            0.0000000000
     29474      7030  TIP3      H2            -16.0792362454       14.9398082001      -27.0723677107  TIP3      6966            0.0000000000
     29475      7031  TIP3      OH2           -10.3460824977       15.1774889455      -26.3993886726  TIP3      6967            0.0000000000
     29476      7031  TIP3      H1            -10.4155923824       15.3215203665      -27.3474237839  TIP3      6967            0.0000000000
     29477      7031  TIP3      H2            -10.7157750998       14.2685595996      -26.3086192055  TIP3      6967            0.0000000000
     29478      7032  TIP3      OH2            -9.1109795732       15.1394469503      -30.7922990211  TIP3      6968            0.0000000000
     29479      7032  TIP3      H1             -9.8201692010       15.8069199743      -30.8582393201  TIP3      6968            0.0000000000
     29480      7032  TIP3      H2             -9.5825062971       14.3727146277      -30.3963492236  TIP3      6968            0.0000000000
     29481      7033  TIP3      OH2           -19.9322771805       16.9440341685      -33.6022873697  TIP3      6969            0.0000000000
     29482      7033  TIP3      H1            -19.4148463145       16.3202948177      -34.1327888194  TIP3      6969            0.0000000000
     29483      7033  TIP3      H2            -19.2516215980       17.2213060721      -32.9660315944  TIP3      6969            0.0000000000
     29484      7034  TIP3      OH2           -14.9528737562       17.1375395150      -31.1920062844  TIP3      6970            0.0000000000
     29485      7034  TIP3      H1            -14.6595595160       16.5946215062      -30.4415679403  TIP3      6970            0.0000000000
     29486      7034  TIP3      H2            -14.8378753909       18.0183905029      -30.7805239877  TIP3      6970            0.0000000000
     29487      7035  TIP3      OH2            -1.3699971747       23.0962328649      -22.8343340414  TIP3      6971            0.0000000000
     29488      7035  TIP3      H1             -1.2473176303       22.6017375071      -22.0337540479  TIP3      6971            0.0000000000
     29489      7035  TIP3      H2             -0.8088340392       23.8828579957      -22.7053934054  TIP3      6971            0.0000000000
     29490      7036  TIP3      OH2            -3.7756808062       21.3703268218      -29.0070664323  TIP3      6972            0.0000000000
     29491      7036  TIP3      H1             -4.2670726152       22.1939860022      -29.0295625842  TIP3      6972            0.0000000000
     29492      7036  TIP3      H2             -4.3808513362       20.7673382902      -29.4640790576  TIP3      6972            0.0000000000
     29493      7037  TIP3      OH2            13.3459144945       17.6403434196      -23.2939951811  TIP3      6973            0.0000000000
     29494      7037  TIP3      H1             13.2797280070       18.2369777403      -22.5377954422  TIP3      6973            0.0000000000
     29495      7037  TIP3      H2             13.8215205499       18.1607926201      -23.9477201976  TIP3      6973            0.0000000000
     29496      7038  TIP3      OH2             7.7565422942       20.4754786413      -23.7103291884  TIP3      6974            0.0000000000
     29497      7038  TIP3      H1              7.9845595639       19.5329894442      -23.7168795182  TIP3      6974            0.0000000000
     29498      7038  TIP3      H2              7.7212903553       20.6706711191      -24.6591905592  TIP3      6974            0.0000000000
     29499      7039  TIP3      OH2             0.8895400261       18.6117794836      -26.4316105420  TIP3      6975            0.0000000000
     29500      7039  TIP3      H1              1.0364762481       19.4243471652      -26.9557048873  TIP3      6975            0.0000000000
     29501      7039  TIP3      H2              0.5260300518       18.0245953853      -27.1284666965  TIP3      6975            0.0000000000
     29502      7040  TIP3      OH2             8.6574687234       18.6646435906      -28.1195489225  TIP3      6976            0.0000000000
     29503      7040  TIP3      H1              9.2747212611       18.3289055811      -27.4287697203  TIP3      6976            0.0000000000
     29504      7040  TIP3      H2              9.2549722890       19.2519426683      -28.6026978834  TIP3      6976            0.0000000000
     29505      7041  TIP3      OH2            -2.4981247781       20.9411270667      -25.7433981480  TIP3      6977            0.0000000000
     29506      7041  TIP3      H1             -1.8014931992       20.4316386421      -25.2912224223  TIP3      6977            0.0000000000
     29507      7041  TIP3      H2             -2.3586249261       20.6452665778      -26.6572871634  TIP3      6977            0.0000000000
     29508      7042  TIP3      OH2             2.6409479608       22.3303410183      -26.3304719139  TIP3      6978            0.0000000000
     29509      7042  TIP3      H1              3.3811940452       21.7452563849      -26.0844499235  TIP3      6978            0.0000000000
     29510      7042  TIP3      H2              2.1499913940       21.7798418020      -26.9699093862  TIP3      6978            0.0000000000
     29511      7043  TIP3      OH2            10.4808193638       17.9800667910      -26.1041298052  TIP3      6979            0.0000000000
     29512      7043  TIP3      H1             10.2358450324       17.2665540025      -25.5086797632  TIP3      6979            0.0000000000
     29513      7043  TIP3      H2             11.1064687573       18.4608808028      -25.5211016093  TIP3      6979            0.0000000000
     29514      7044  TIP3      OH2            -0.6593994105       19.3540362623      -24.3724251570  TIP3      6980            0.0000000000
     29515      7044  TIP3      H1              0.0283706007       19.9835985380      -24.0986137734  TIP3      6980            0.0000000000
     29516      7044  TIP3      H2             -0.1580972671       18.9190456874      -25.1080378200  TIP3      6980            0.0000000000
     29517      7045  TIP3      OH2             3.7249652372       14.8543531976      -24.9633351817  TIP3      6981            0.0000000000
     29518      7045  TIP3      H1              3.6011353506       13.8917843958      -25.1112140762  TIP3      6981            0.0000000000
     29519      7045  TIP3      H2              2.8408694934       15.1414513033      -24.6576883834  TIP3      6981            0.0000000000
     29520      7046  TIP3      OH2             6.1041722900       22.0959772253      -33.5186401391  TIP3      6982            0.0000000000
     29521      7046  TIP3      H1              6.8011790677       22.1938053309      -32.8354094464  TIP3      6982            0.0000000000
     29522      7046  TIP3      H2              6.4620237395       21.3954237385      -34.0665108709  TIP3      6982            0.0000000000
     29523      7047  TIP3      OH2            13.2766641903       22.9016610778      -22.3417264913  TIP3      6983            0.0000000000
     29524      7047  TIP3      H1             12.8079566156       23.7215329587      -22.1738297493  TIP3      6983            0.0000000000
     29525      7047  TIP3      H2             13.9042796568       23.1714948852      -23.0263844650  TIP3      6983            0.0000000000
     29526      7048  TIP3      OH2             1.7029107683      -23.8376102909      -23.8130010817  TIP3      6984            0.0000000000
     29527      7048  TIP3      H1              1.8742045551      -23.6539992828      -24.7591306934  TIP3      6984            0.0000000000
     29528      7048  TIP3      H2              1.6515918666      -22.9211311502      -23.4923969673  TIP3      6984            0.0000000000
     29529      7049  TIP3      OH2             8.3708264713       22.8159692339      -32.1472221698  TIP3      6985            0.0000000000
     29530      7049  TIP3      H1              8.7325075407       23.0142877291      -31.2688191635  TIP3      6985            0.0000000000
     29531      7049  TIP3      H2              8.7192872692       23.5424912497      -32.6719290436  TIP3      6985            0.0000000000
     29532      7050  TIP3      OH2            12.1386755922       14.7472185193      -31.9326516019  TIP3      6986            0.0000000000
     29533      7050  TIP3      H1             11.1795041029       14.8378191810      -31.7348377267  TIP3      6986            0.0000000000
     29534      7050  TIP3      H2             12.3208067490       15.5840797495      -32.4021280340  TIP3      6986            0.0000000000
     29535      7051  TIP3      OH2             1.1471951996       15.6726173798      -24.1188320053  TIP3      6987            0.0000000000
     29536      7051  TIP3      H1              0.2864084978       15.5327179053      -24.5642892563  TIP3      6987            0.0000000000
     29537      7051  TIP3      H2              1.0550980582       16.5876219520      -23.8573952191  TIP3      6987            0.0000000000
     29538      7052  TIP3      OH2             5.7421861634       15.3126287267      -20.8326238103  TIP3      6988            0.0000000000
     29539      7052  TIP3      H1              6.1548659226       15.0813963847      -19.9998940739  TIP3      6988            0.0000000000
     29540      7052  TIP3      H2              4.8053244990       15.3259128743      -20.6292463528  TIP3      6988            0.0000000000
     29541      7053  TIP3      OH2             5.4645413711       17.9308503694      -33.5435670881  TIP3      6989            0.0000000000
     29542      7053  TIP3      H1              5.1068024889       17.9232100043      -32.6416416758  TIP3      6989            0.0000000000
     29543      7053  TIP3      H2              5.0998569257       17.0867348432      -33.8652697769  TIP3      6989            0.0000000000
     29544      7054  TIP3      OH2             1.2131389894       20.5715020570      -22.8628819891  TIP3      6990            0.0000000000
     29545      7054  TIP3      H1              0.4184399346       20.7590403489      -22.3739109359  TIP3      6990            0.0000000000
     29546      7054  TIP3      H2              1.3395456788       21.4324907422      -23.3420340582  TIP3      6990            0.0000000000
     29547      7055  TIP3      OH2             1.1864292060       20.7322937558      -28.1081770961  TIP3      6991            0.0000000000
     29548      7055  TIP3      H1              0.2343680081       20.5456166277      -28.2628804589  TIP3      6991            0.0000000000
     29549      7055  TIP3      H2              1.5501134372       20.5125684710      -28.9886682242  TIP3      6991            0.0000000000
     29550      7056  TIP3      OH2             6.8714208682       21.4053639243      -29.2503989823  TIP3      6992            0.0000000000
     29551      7056  TIP3      H1              6.2433392036       22.0177069809      -29.6581588023  TIP3      6992            0.0000000000
     29552      7056  TIP3      H2              7.3934406142       21.0756101527      -30.0086640255  TIP3      6992            0.0000000000
     29553      7057  TIP3      OH2             7.6841947022       20.7637072636      -26.4865597551  TIP3      6993            0.0000000000
     29554      7057  TIP3      H1              7.4432934130       21.2736928491      -27.2754417712  TIP3      6993            0.0000000000
     29555      7057  TIP3      H2              7.8603137276       19.8903203478      -26.8921768747  TIP3      6993            0.0000000000
     29556      7058  TIP3      OH2             2.1971831408       18.3256938461      -34.4693521246  TIP3      6994            0.0000000000
     29557      7058  TIP3      H1              1.7809622445       17.9724250244      -33.6558178853  TIP3      6994            0.0000000000
     29558      7058  TIP3      H2              1.4795915139       18.7853083599      -34.9175385577  TIP3      6994            0.0000000000
     29559      7059  TIP3      OH2            -4.4804659787       18.0375163029      -27.3312887444  TIP3      6995            0.0000000000
     29560      7059  TIP3      H1             -3.7984593490       18.0419670878      -26.6348566525  TIP3      6995            0.0000000000
     29561      7059  TIP3      H2             -4.0097100316       17.6861269621      -28.1037597516  TIP3      6995            0.0000000000
     29562      7060  TIP3      OH2            -3.2628727429       18.7220153800      -31.9784070478  TIP3      6996            0.0000000000
     29563      7060  TIP3      H1             -2.7014053763       19.3202425161      -32.5130386036  TIP3      6996            0.0000000000
     29564      7060  TIP3      H2             -3.9156995922       19.3792603954      -31.6539791012  TIP3      6996            0.0000000000
     29565      7061  TIP3      OH2             6.8181304763       22.3513857107      -21.8638653071  TIP3      6997            0.0000000000
     29566      7061  TIP3      H1              7.3104392748       21.7578291933      -22.4686175939  TIP3      6997            0.0000000000
     29567      7061  TIP3      H2              6.5484622589       21.7460023205      -21.1615908231  TIP3      6997            0.0000000000
     29568      7062  TIP3      OH2             3.7916685367       18.3615847661      -27.1155897067  TIP3      6998            0.0000000000
     29569      7062  TIP3      H1              2.8566250643       18.3596373470      -26.8423120377  TIP3      6998            0.0000000000
     29570      7062  TIP3      H2              4.2505737031       18.2232377606      -26.2724775788  TIP3      6998            0.0000000000
     29571      7063  TIP3      OH2            -1.4152781269       19.8818765703      -28.2024471832  TIP3      6999            0.0000000000
     29572      7063  TIP3      H1             -2.2855955863       20.0898190303      -28.5891798405  TIP3      6999            0.0000000000
     29573      7063  TIP3      H2             -1.1585048034       19.0572491409      -28.6524175330  TIP3      6999            0.0000000000
     29574      7064  TIP3      OH2             2.2023455700       19.9788586043      -30.6151253313  TIP3      7000            0.0000000000
     29575      7064  TIP3      H1              3.1575652554       20.0727949384      -30.4571729661  TIP3      7000            0.0000000000
     29576      7064  TIP3      H2              1.9943839082       20.6514537965      -31.2953300730  TIP3      7000            0.0000000000
     29577      7065  TIP3      OH2             8.1871573258       17.6052154972      -23.8744361741  TIP3      7001            0.0000000000
     29578      7065  TIP3      H1              7.5246977155       17.6869693455      -23.1704999459  TIP3      7001            0.0000000000
     29579      7065  TIP3      H2              7.6649190222       17.3364203126      -24.6368133130  TIP3      7001            0.0000000000
     29580      7066  TIP3      OH2             0.8900628899       21.1277783962      -33.0524626804  TIP3      7002            0.0000000000
     29581      7066  TIP3      H1              0.4184476635       20.7447356890      -33.7993067332  TIP3      7002            0.0000000000
     29582      7066  TIP3      H2              1.7501608461       21.3645407602      -33.4486501025  TIP3      7002            0.0000000000
     29583      7067  TIP3      OH2             4.8797884972       20.9983179116      -25.2550083897  TIP3      7003            0.0000000000
     29584      7067  TIP3      H1              5.6495240276       20.6124509194      -25.6904940495  TIP3      7003            0.0000000000
     29585      7067  TIP3      H2              4.9185347509       20.6010288797      -24.3752167275  TIP3      7003            0.0000000000
     29586      7068  TIP3      OH2             0.0520553910       17.2656996568      -28.7703519079  TIP3      7004            0.0000000000
     29587      7068  TIP3      H1             -0.2666710792       16.3471386821      -28.7242019768  TIP3      7004            0.0000000000
     29588      7068  TIP3      H2              0.8424024372       17.1728571577      -29.3152809205  TIP3      7004            0.0000000000
     29589      7069  TIP3      OH2             3.7100682580       19.4411941606      -22.7807177861  TIP3      7005            0.0000000000
     29590      7069  TIP3      H1              2.9080740245       19.9908396706      -22.7812339040  TIP3      7005            0.0000000000
     29591      7069  TIP3      H2              4.2632104883       19.8675591319      -22.1173295511  TIP3      7005            0.0000000000
     29592      7070  TIP3      OH2             8.1182232585       18.5030709634      -32.9002504869  TIP3      7006            0.0000000000
     29593      7070  TIP3      H1              7.1670821914       18.6389255591      -33.0669712997  TIP3      7006            0.0000000000
     29594      7070  TIP3      H2              8.4292433568       19.3709609080      -32.5802493929  TIP3      7006            0.0000000000
     29595      7071  TIP3      OH2             8.8179885982       20.4523734700      -31.2322766193  TIP3      7007            0.0000000000
     29596      7071  TIP3      H1              9.7123907695       20.2195230163      -30.8928674504  TIP3      7007            0.0000000000
     29597      7071  TIP3      H2              8.9838051740       21.2153721973      -31.8137385162  TIP3      7007            0.0000000000
     29598      7072  TIP3      OH2            13.6695501332       20.5300805530      -31.4830905509  TIP3      7008            0.0000000000
     29599      7072  TIP3      H1             13.1682003587       20.2375273942      -32.2704959670  TIP3      7008            0.0000000000
     29600      7072  TIP3      H2             13.7472884062       21.4717044641      -31.7077608063  TIP3      7008            0.0000000000
     29601      7073  TIP3      OH2            -2.3627338913      -23.4929629539      -33.7197370871  TIP3      7009            0.0000000000
     29602      7073  TIP3      H1             -1.7983446969      -23.0307287104      -33.0794903529  TIP3      7009            0.0000000000
     29603      7073  TIP3      H2             -3.2309684173      -23.3023378207      -33.3195507436  TIP3      7009            0.0000000000
     29604      7074  TIP3      OH2             6.6947625113       17.9490118078      -21.4467316337  TIP3      7010            0.0000000000
     29605      7074  TIP3      H1              7.5225108215       18.0397491941      -20.9466910426  TIP3      7010            0.0000000000
     29606      7074  TIP3      H2              6.4440537424       17.0246036511      -21.3220705717  TIP3      7010            0.0000000000
     29607      7075  TIP3      OH2             7.4865038222       17.5248576446      -30.4003500855  TIP3      7011            0.0000000000
     29608      7075  TIP3      H1              7.7237856029       17.9431972994      -31.2495768277  TIP3      7011            0.0000000000
     29609      7075  TIP3      H2              8.0674643105       17.9976234256      -29.7836204937  TIP3      7011            0.0000000000
     29610      7076  TIP3      OH2             4.7412077106       19.2661326313      -29.6084137764  TIP3      7012            0.0000000000
     29611      7076  TIP3      H1              5.4743458013       19.8916133641      -29.5435212281  TIP3      7012            0.0000000000
     29612      7076  TIP3      H2              4.4254239925       19.1640966744      -28.6865013737  TIP3      7012            0.0000000000
     29613      7077  TIP3      OH2             5.5466585620       16.3128585141      -28.7744127402  TIP3      7013            0.0000000000
     29614      7077  TIP3      H1              5.2313211648       16.9642672620      -28.1304816671  TIP3      7013            0.0000000000
     29615      7077  TIP3      H2              6.2777990072       16.8430727370      -29.1752212556  TIP3      7013            0.0000000000
     29616      7078  TIP3      OH2             1.2407354093       17.4716223918      -32.0517255234  TIP3      7014            0.0000000000
     29617      7078  TIP3      H1              1.1799206890       18.3472744745      -31.6241487828  TIP3      7014            0.0000000000
     29618      7078  TIP3      H2              2.1324651360       17.1946936991      -31.7500704796  TIP3      7014            0.0000000000
     29619      7079  TIP3      OH2            10.0392173591       21.8156467504      -25.6963708524  TIP3      7015            0.0000000000
     29620      7079  TIP3      H1              9.1727239615       21.3964742688      -25.7848058280  TIP3      7015            0.0000000000
     29621      7079  TIP3      H2             10.4905577997       21.2320351460      -25.0393801045  TIP3      7015            0.0000000000
     29622      7080  TIP3      OH2            -2.2271168556       20.5240470287      -33.8153828345  TIP3      7016            0.0000000000
     29623      7080  TIP3      H1             -2.1826424343       21.4885771119      -33.6408550140  TIP3      7016            0.0000000000
     29624      7080  TIP3      H2             -3.1029999194       20.3883102425      -34.1806998993  TIP3      7016            0.0000000000
     29625      7081  TIP3      OH2            -1.3870696763       15.3853263670      -25.0730131751  TIP3      7017            0.0000000000
     29626      7081  TIP3      H1             -1.5433793636       15.3884109324      -26.0411380800  TIP3      7017            0.0000000000
     29627      7081  TIP3      H2             -1.7302383552       14.4928503397      -24.8518680111  TIP3      7017            0.0000000000
     29628      7082  TIP3      OH2             3.3208765478       22.0991118803      -33.8134128999  TIP3      7018            0.0000000000
     29629      7082  TIP3      H1              3.1642731409       22.1473159236      -34.7821620714  TIP3      7018            0.0000000000
     29630      7082  TIP3      H2              4.2614299998       22.3592321497      -33.7958694482  TIP3      7018            0.0000000000
     29631      7083  TIP3      OH2             4.1162948460      -24.1505701307      -21.5291991254  TIP3      7019            0.0000000000
     29632      7083  TIP3      H1              5.0266406992      -23.9519040691      -21.8046545043  TIP3      7019            0.0000000000
     29633      7083  TIP3      H2              3.7513240236      -23.2783993439      -21.3171702852  TIP3      7019            0.0000000000
     29634      7084  TIP3      OH2            12.1790881982       20.6022126206      -33.8633813882  TIP3      7020            0.0000000000
     29635      7084  TIP3      H1             12.3165565795       21.2617530796      -34.5576164283  TIP3      7020            0.0000000000
     29636      7084  TIP3      H2             12.0574342320       19.7731752333      -34.3742536860  TIP3      7020            0.0000000000
     29637      7085  TIP3      OH2            11.3793661888       22.0627509707      -28.2210720673  TIP3      7021            0.0000000000
     29638      7085  TIP3      H1             11.2057635807       21.1114612463      -28.2515593548  TIP3      7021            0.0000000000
     29639      7085  TIP3      H2             11.0983769993       22.2855430673      -27.3187318711  TIP3      7021            0.0000000000
     29640      7086  TIP3      OH2            11.4568058302       18.1419246001      -34.7234815559  TIP3      7022            0.0000000000
     29641      7086  TIP3      H1             12.0515948611       17.6807664091      -34.0970424170  TIP3      7022            0.0000000000
     29642      7086  TIP3      H2             10.6043512311       17.7015203223      -34.5931830727  TIP3      7022            0.0000000000
     29643      7087  TIP3      OH2            10.9766653251       19.7174590042      -29.7294811684  TIP3      7023            0.0000000000
     29644      7087  TIP3      H1             11.2753289634       18.7880887839      -29.5896707123  TIP3      7023            0.0000000000
     29645      7087  TIP3      H2             11.8114597031       20.0896306090      -30.0482719751  TIP3      7023            0.0000000000
     29646      7088  TIP3      OH2            11.6933074140       20.1733426825      -24.2659954757  TIP3      7024            0.0000000000
     29647      7088  TIP3      H1             12.6479621475       20.4071844307      -24.3045835142  TIP3      7024            0.0000000000
     29648      7088  TIP3      H2             11.5126647929       20.3509376253      -23.3210767010  TIP3      7024            0.0000000000
     29649      7089  TIP3      OH2            11.6923987936       20.9197284109      -21.6458538699  TIP3      7025            0.0000000000
     29650      7089  TIP3      H1             10.8970925612       21.1541623248      -21.1547700931  TIP3      7025            0.0000000000
     29651      7089  TIP3      H2             12.2418781518       21.7237602898      -21.7378832758  TIP3      7025            0.0000000000
     29652      7090  TIP3      OH2            11.7021334248       16.9748139092      -29.6896493096  TIP3      7026            0.0000000000
     29653      7090  TIP3      H1             11.9493710204       16.5531132258      -28.8305309273  TIP3      7026            0.0000000000
     29654      7090  TIP3      H2             11.1360499201       16.2982991653      -30.1132631095  TIP3      7026            0.0000000000
     29655      7091  TIP3      OH2            -2.8406126227       17.7776147793      -25.0914991504  TIP3      7027            0.0000000000
     29656      7091  TIP3      H1             -2.3802666639       16.9321207465      -24.9305544864  TIP3      7027            0.0000000000
     29657      7091  TIP3      H2             -2.2011710502       18.4207842495      -24.7596166604  TIP3      7027            0.0000000000
     29658      7092  TIP3      OH2            -4.4995629938       20.6917344211      -24.0597448410  TIP3      7028            0.0000000000
     29659      7092  TIP3      H1             -4.0041341437       20.5010063498      -24.8853712890  TIP3      7028            0.0000000000
     29660      7092  TIP3      H2             -4.1072980964       21.5495829758      -23.8640665788  TIP3      7028            0.0000000000
     29661      7093  TIP3      OH2            13.5114693026       16.9701809939      -33.1299110304  TIP3      7029            0.0000000000
     29662      7093  TIP3      H1             13.9185125367       16.2669603581      -33.6866629637  TIP3      7029            0.0000000000
     29663      7093  TIP3      H2             14.2313416709       17.6129689236      -33.0733366097  TIP3      7029            0.0000000000
     29664      7094  TIP3      OH2            -4.1534488420       17.0589595119      -30.0072687427  TIP3      7030            0.0000000000
     29665      7094  TIP3      H1             -5.1012188896       17.1818979765      -30.1724821496  TIP3      7030            0.0000000000
     29666      7094  TIP3      H2             -3.7590691231       17.5310771048      -30.7599513185  TIP3      7030            0.0000000000
     29667      7095  TIP3      OH2             5.9634497221       16.6422256856      -25.6759291086  TIP3      7031            0.0000000000
     29668      7095  TIP3      H1              5.2814432977       16.0082515806      -25.4072739301  TIP3      7031            0.0000000000
     29669      7095  TIP3      H2              6.5192239672       16.0722079546      -26.2218047908  TIP3      7031            0.0000000000
     29670      7096  TIP3      OH2            11.1073402346       14.6123380748      -25.6491529674  TIP3      7032            0.0000000000
     29671      7096  TIP3      H1             11.6938388285       15.2517296518      -26.1132698771  TIP3      7032            0.0000000000
     29672      7096  TIP3      H2             10.2135916808       14.9890752141      -25.8277862493  TIP3      7032            0.0000000000
     29673      7097  TIP3      OH2            12.7437138098       15.9412601543      -27.4052475728  TIP3      7033            0.0000000000
     29674      7097  TIP3      H1             13.4312672406       15.3330892659      -27.7625056834  TIP3      7033            0.0000000000
     29675      7097  TIP3      H2             13.2805010637       16.7495181727      -27.2398476801  TIP3      7033            0.0000000000
     29676      7098  TIP3      OH2            -1.6610014119       15.2188180096      -27.8531247865  TIP3      7034            0.0000000000
     29677      7098  TIP3      H1             -2.4738433014       15.0568414187      -28.3662110723  TIP3      7034            0.0000000000
     29678      7098  TIP3      H2             -1.2391750948       14.3359280981      -27.8896618089  TIP3      7034            0.0000000000
     29679      7099  TIP3      OH2            -2.9823496427       14.9732840058      -32.1658246314  TIP3      7035            0.0000000000
     29680      7099  TIP3      H1             -2.4140282531       15.6086566902      -32.6414680002  TIP3      7035            0.0000000000
     29681      7099  TIP3      H2             -3.4415125867       15.5698805203      -31.5549818071  TIP3      7035            0.0000000000
     29682      7100  TIP3      OH2             2.7519599619       15.2304091829      -28.0397633360  TIP3      7036            0.0000000000
     29683      7100  TIP3      H1              3.6667732189       15.5277316731      -28.1633756217  TIP3      7036            0.0000000000
     29684      7100  TIP3      H2              2.7778032631       14.9195841035      -27.1335801124  TIP3      7036            0.0000000000
     29685      7101  TIP3      OH2             8.5324836028       15.1698630526      -26.4275068519  TIP3      7037            0.0000000000
     29686      7101  TIP3      H1              8.4500794893       15.2912150559      -27.3754709345  TIP3      7037            0.0000000000
     29687      7101  TIP3      H2              8.1322871415       14.2764634392      -26.3012144061  TIP3      7037            0.0000000000
     29688      7102  TIP3      OH2             9.7745818507       15.2073901136      -30.7598342756  TIP3      7038            0.0000000000
     29689      7102  TIP3      H1              9.0017227223       15.7770693567      -30.8786227580  TIP3      7038            0.0000000000
     29690      7102  TIP3      H2              9.3517633299       14.3619141947      -30.4646630964  TIP3      7038            0.0000000000
     29691      7103  TIP3      OH2            -1.1102643421       16.9133009286      -33.5799705000  TIP3      7039            0.0000000000
     29692      7103  TIP3      H1             -0.5741884238       16.3092919571      -34.1202863783  TIP3      7039            0.0000000000
     29693      7103  TIP3      H2             -0.4361913888       17.2442369577      -32.9591611502  TIP3      7039            0.0000000000
     29694      7104  TIP3      OH2             3.8968108730       17.1383532459      -31.1921739409  TIP3      7040            0.0000000000
     29695      7104  TIP3      H1              4.1914169332       16.5879370905      -30.4474259629  TIP3      7040            0.0000000000
     29696      7104  TIP3      H2              4.0180168302       18.0176853989      -30.7776754688  TIP3      7040            0.0000000000
     29697      7105  TIP3      OH2            17.3000698136       23.1881101260      -23.1953326338  TIP3      7041            0.0000000000
     29698      7105  TIP3      H1             17.1698333727       22.6793866573      -22.4067026300  TIP3      7041            0.0000000000
     29699      7105  TIP3      H2             17.8960911812       23.8964217060      -22.9028596728  TIP3      7041            0.0000000000
     29700      7106  TIP3      OH2            15.0755024495       21.4207994714      -29.0638771549  TIP3      7042            0.0000000000
     29701      7106  TIP3      H1             14.5245811746       22.2060643335      -29.0170481053  TIP3      7042            0.0000000000
     29702      7106  TIP3      H2             14.4692411339       20.7849979723      -29.4720345083  TIP3      7042            0.0000000000
     29703      7107  TIP3      OH2            19.5464765112       18.5692176582      -26.4476370002  TIP3      7043            0.0000000000
     29704      7107  TIP3      H1             19.8940794311       19.3766942114      -26.8846085442  TIP3      7043            0.0000000000
     29705      7107  TIP3      H2             19.2820850011       18.0296691528      -27.2236159970  TIP3      7043            0.0000000000
     29706      7108  TIP3      OH2            16.3751885202       20.9400216543      -25.7548587656  TIP3      7044            0.0000000000
     29707      7108  TIP3      H1             17.0716283769       20.4235003451      -25.2986153726  TIP3      7044            0.0000000000
     29708      7108  TIP3      H2             16.5156187369       20.6402319981      -26.6630785666  TIP3      7044            0.0000000000
     29709      7109  TIP3      OH2            21.4859790215       22.3351514826      -26.3970431414  TIP3      7045            0.0000000000
     29710      7109  TIP3      H1             22.2024899952       21.7527416009      -26.0840389443  TIP3      7045            0.0000000000
     29711      7109  TIP3      H2             20.9604645654       21.7343206299      -26.9688179978  TIP3      7045            0.0000000000
     29712      7110  TIP3      OH2            18.5152902122       17.4215004409      -22.5044089382  TIP3      7046            0.0000000000
     29713      7110  TIP3      H1             18.3644413127       18.0908503898      -23.2071779836  TIP3      7046            0.0000000000
     29714      7110  TIP3      H2             17.9565726961       17.7385283200      -21.7648963418  TIP3      7046            0.0000000000
     29715      7111  TIP3      OH2            18.0706041338       19.3042820634      -24.4612294096  TIP3      7047            0.0000000000
     29716      7111  TIP3      H1             18.7512969956       19.9257783211      -24.1145100884  TIP3      7047            0.0000000000
     29717      7111  TIP3      H2             18.6391304543       18.8994269211      -25.1700672126  TIP3      7047            0.0000000000
     29718      7112  TIP3      OH2            22.5397041542       14.8127347832      -25.1388116087  TIP3      7048            0.0000000000
     29719      7112  TIP3      H1             22.4729803076       13.8739274446      -24.9306495143  TIP3      7048            0.0000000000
     29720      7112  TIP3      H2             21.8025048473       15.1870125332      -24.6114734594  TIP3      7048            0.0000000000
     29721      7113  TIP3      OH2            20.5486041059      -23.8745625332      -23.8243041327  TIP3      7049            0.0000000000
     29722      7113  TIP3      H1             20.6857561221      -23.6641837204      -24.7691185578  TIP3      7049            0.0000000000
     29723      7113  TIP3      H2             20.5978780447      -22.9695111375      -23.4780406838  TIP3      7049            0.0000000000
     29724      7114  TIP3      OH2            20.0007160200       15.7377786767      -24.3352776054  TIP3      7050            0.0000000000
     29725      7114  TIP3      H1             19.0648331485       15.6401166422      -24.6007085451  TIP3      7050            0.0000000000
     29726      7114  TIP3      H2             19.9295643338       16.4526315939      -23.6772054734  TIP3      7050            0.0000000000
     29727      7115  TIP3      OH2            20.0048118510       20.4397634092      -23.2970783856  TIP3      7051            0.0000000000
     29728      7115  TIP3      H1             19.3463954893       20.5048916521      -22.5763208890  TIP3      7051            0.0000000000
     29729      7115  TIP3      H2             20.1232870708       21.3796126612      -23.5862764333  TIP3      7051            0.0000000000
     29730      7116  TIP3      OH2            20.0344627684       20.7725670713      -28.1389492564  TIP3      7052            0.0000000000
     29731      7116  TIP3      H1             19.0815226666       20.5622336250      -28.2579919942  TIP3      7052            0.0000000000
     29732      7116  TIP3      H2             20.4051820898       20.4614662544      -28.9835428564  TIP3      7052            0.0000000000
     29733      7117  TIP3      OH2            17.6618238941       20.3197971755      -21.5033850113  TIP3      7053            0.0000000000
     29734      7117  TIP3      H1             17.8216014685       20.8411310743      -20.7034007919  TIP3      7053            0.0000000000
     29735      7117  TIP3      H2             17.0772013671       19.6253625067      -21.1442959741  TIP3      7053            0.0000000000
     29736      7118  TIP3      OH2            20.9518587283       18.1530280009      -34.3992617742  TIP3      7054            0.0000000000
     29737      7118  TIP3      H1             20.5139346837       17.9156604902      -33.5660466061  TIP3      7054            0.0000000000
     29738      7118  TIP3      H2             20.3410535385       18.7603133270      -34.8339802213  TIP3      7054            0.0000000000
     29739      7119  TIP3      OH2            14.4094950349       18.0288153182      -27.2926462400  TIP3      7055            0.0000000000
     29740      7119  TIP3      H1             15.0894945317       17.9952357721      -26.5891003219  TIP3      7055            0.0000000000
     29741      7119  TIP3      H2             14.8578446669       17.6895388107      -28.0817996731  TIP3      7055            0.0000000000
     29742      7120  TIP3      OH2            15.5647830545       18.7341679710      -31.9742068339  TIP3      7056            0.0000000000
     29743      7120  TIP3      H1             16.1244833892       19.3443444560      -32.4980572786  TIP3      7056            0.0000000000
     29744      7120  TIP3      H2             14.9176746429       19.3928262490      -31.6450285609  TIP3      7056            0.0000000000
     29745      7121  TIP3      OH2            22.0836824235       18.5757419605      -26.9769482638  TIP3      7057            0.0000000000
     29746      7121  TIP3      H1             21.2804936114       18.2445223683      -26.5376747247  TIP3      7057            0.0000000000
     29747      7121  TIP3      H2             22.7535873092       18.4158508200      -26.2999238803  TIP3      7057            0.0000000000
     29748      7122  TIP3      OH2            17.4326339146       19.8684857353      -28.1697169282  TIP3      7058            0.0000000000
     29749      7122  TIP3      H1             16.5803628861       20.0831581976      -28.5830961873  TIP3      7058            0.0000000000
     29750      7122  TIP3      H2             17.7015124594       19.0514406316      -28.6157805099  TIP3      7058            0.0000000000
     29751      7123  TIP3      OH2            21.1417837173       19.9671053041      -30.5906021727  TIP3      7059            0.0000000000
     29752      7123  TIP3      H1             22.0497811907       20.2058513764      -30.4485957233  TIP3      7059            0.0000000000
     29753      7123  TIP3      H2             20.8443057972       20.5945654089      -31.2859279404  TIP3      7059            0.0000000000
     29754      7124  TIP3      OH2            19.8331933924       21.0936830287      -33.0266340107  TIP3      7060            0.0000000000
     29755      7124  TIP3      H1             19.2573351420       20.7794191946      -33.7387578561  TIP3      7060            0.0000000000
     29756      7124  TIP3      H2             20.6373369793       21.3883231610      -33.4950327663  TIP3      7060            0.0000000000
     29757      7125  TIP3      OH2            18.9245919686       17.2828696044      -28.7701941077  TIP3      7061            0.0000000000
     29758      7125  TIP3      H1             18.5790361069       16.3695666429      -28.7330353507  TIP3      7061            0.0000000000
     29759      7125  TIP3      H2             19.6988794393       17.1830546828      -29.3317864947  TIP3      7061            0.0000000000
     29760      7126  TIP3      OH2            22.3156959767       19.2574937783      -22.4907566203  TIP3      7062            0.0000000000
     29761      7126  TIP3      H1             21.7457545628       19.9182821636      -22.9162234354  TIP3      7062            0.0000000000
     29762      7126  TIP3      H2             23.0299059089       19.7860786310      -22.1659895462  TIP3      7062            0.0000000000
     29763      7127  TIP3      OH2            16.4918751667      -23.4921582792      -33.7137902249  TIP3      7063            0.0000000000
     29764      7127  TIP3      H1             17.0720880742      -23.0210029380      -33.0947595819  TIP3      7063            0.0000000000
     29765      7127  TIP3      H2             15.6238454517      -23.2992625921      -33.3080141814  TIP3      7063            0.0000000000
     29766      7128  TIP3      OH2            16.8025079712       18.1690332545      -20.4014695480  TIP3      7064            0.0000000000
     29767      7128  TIP3      H1             15.8731647478       18.4284121004      -20.5130375139  TIP3      7064            0.0000000000
     29768      7128  TIP3      H2             16.7521222207       17.2909977896      -20.0204541002  TIP3      7064            0.0000000000
     29769      7129  TIP3      OH2            19.9117034783       17.5050992484      -32.0034722749  TIP3      7065            0.0000000000
     29770      7129  TIP3      H1             19.9387507456       18.3927067318      -31.6095484039  TIP3      7065            0.0000000000
     29771      7129  TIP3      H2             20.8454485192       17.2419814266      -31.8157441980  TIP3      7065            0.0000000000
     29772      7130  TIP3      OH2            16.6370159784       20.5282269525      -33.8149148538  TIP3      7066            0.0000000000
     29773      7130  TIP3      H1             16.6644441317       21.4919814634      -33.6409132332  TIP3      7066            0.0000000000
     29774      7130  TIP3      H2             15.7601530374       20.3824360471      -34.1764945532  TIP3      7066            0.0000000000
     29775      7131  TIP3      OH2            17.3821001890       15.3679730144      -25.0749547062  TIP3      7067            0.0000000000
     29776      7131  TIP3      H1             17.3205993188       15.3880076117      -26.0536010995  TIP3      7067            0.0000000000
     29777      7131  TIP3      H2             17.0501768738       14.4685619164      -24.8678188796  TIP3      7067            0.0000000000
     29778      7132  TIP3      OH2            22.2323145504       22.1295787642      -33.7982258919  TIP3      7068            0.0000000000
     29779      7132  TIP3      H1             21.9698699273       22.0480147367      -34.7514724999  TIP3      7068            0.0000000000
     29780      7132  TIP3      H2             23.1399621039       22.3913883366      -33.9566121159  TIP3      7068            0.0000000000
     29781      7133  TIP3      OH2            20.8978598261       17.4281249666      -21.3428661213  TIP3      7069            0.0000000000
     29782      7133  TIP3      H1             21.5459525137       17.9686595543      -21.8560696742  TIP3      7069            0.0000000000
     29783      7133  TIP3      H2             20.0973613590       17.5420768341      -21.8718454846  TIP3      7069            0.0000000000
     29784      7134  TIP3      OH2            22.9326329375      -23.9158615293      -21.0135728065  TIP3      7070            0.0000000000
     29785      7134  TIP3      H1             23.6404549538      -23.7967373517      -21.6544981277  TIP3      7070            0.0000000000
     29786      7134  TIP3      H2             22.4191210121      -23.1558898022      -21.3258392361  TIP3      7070            0.0000000000
     29787      7135  TIP3      OH2            22.0380607663       15.0446304394      -21.4451326499  TIP3      7071            0.0000000000
     29788      7135  TIP3      H1             21.8552418619       15.9012294757      -21.0039922408  TIP3      7071            0.0000000000
     29789      7135  TIP3      H2             21.1490330355       14.6518434085      -21.4141716314  TIP3      7071            0.0000000000
     29790      7136  TIP3      OH2            16.0028515225       17.7171160405      -25.0950471182  TIP3      7072            0.0000000000
     29791      7136  TIP3      H1             16.4769168891       16.8887778027      -24.8786623391  TIP3      7072            0.0000000000
     29792      7136  TIP3      H2             16.6326804392       18.3906841449      -24.7902173341  TIP3      7072            0.0000000000
     29793      7137  TIP3      OH2            14.3324651113       20.7464432954      -24.0926382355  TIP3      7073            0.0000000000
     29794      7137  TIP3      H1             14.8927859237       20.4896244978      -24.8525095445  TIP3      7073            0.0000000000
     29795      7137  TIP3      H2             14.7690941610       21.5629056482      -23.8394442296  TIP3      7073            0.0000000000
     29796      7138  TIP3      OH2            14.7001986503       17.0589448403      -30.0022042016  TIP3      7074            0.0000000000
     29797      7138  TIP3      H1             13.7550385455       17.1767843087      -30.1715767181  TIP3      7074            0.0000000000
     29798      7138  TIP3      H2             15.0945129522       17.5269115056      -30.7578746710  TIP3      7074            0.0000000000
     29799      7139  TIP3      OH2            14.5999837461       15.6258052558      -21.7081380419  TIP3      7075            0.0000000000
     29800      7139  TIP3      H1             13.8940212923       15.5754720546      -21.0347767381  TIP3      7075            0.0000000000
     29801      7139  TIP3      H2             14.1840353719       16.3337899502      -22.2497404516  TIP3      7075            0.0000000000
     29802      7140  TIP3      OH2            17.2154926179       15.2114237568      -27.8651178859  TIP3      7076            0.0000000000
     29803      7140  TIP3      H1             16.3946893159       15.0591420388      -28.3565720967  TIP3      7076            0.0000000000
     29804      7140  TIP3      H2             17.6201042722       14.3235962663      -27.9111963653  TIP3      7076            0.0000000000
     29805      7141  TIP3      OH2            15.9312357051       14.9796887513      -32.1480277971  TIP3      7077            0.0000000000
     29806      7141  TIP3      H1             16.4552326506       15.6374958162      -32.6408270850  TIP3      7077            0.0000000000
     29807      7141  TIP3      H2             15.3932900072       15.5452233201      -31.5710170483  TIP3      7077            0.0000000000
     29808      7142  TIP3      OH2            21.4883839877       15.3068371761      -27.9342904096  TIP3      7078            0.0000000000
     29809      7142  TIP3      H1             22.4325827755       15.4544223305      -28.1098475385  TIP3      7078            0.0000000000
     29810      7142  TIP3      H2             21.5392610020       14.9621927225      -27.0336493103  TIP3      7078            0.0000000000
     29811      7143  TIP3      OH2            17.7702944532       16.9143086765      -33.5912834242  TIP3      7079            0.0000000000
     29812      7143  TIP3      H1             18.3199794894       16.3287945836      -34.1370423671  TIP3      7079            0.0000000000
     29813      7143  TIP3      H2             18.4417477469       17.2607538457      -32.9715398104  TIP3      7079            0.0000000000
     29814      7144  TIP3      OH2            22.4022860003       17.3256119758      -31.5510770139  TIP3      7080            0.0000000000
     29815      7144  TIP3      H1             22.7957966107       16.5886398052      -31.0579525839  TIP3      7080            0.0000000000
     29816      7144  TIP3      H2             22.7206944894       18.0891715944      -31.0569370837  TIP3      7080            0.0000000000
     29817      7145  POT       POT           -23.1393245599       10.1825996269       60.9440371650  IONS      1               1.0000000000
     29818      7146  POT       POT            14.0523577036      -12.4108027472       66.1503382205  IONS      2               1.0000000000
     29819      7147  POT       POT           -10.3171828322       15.7312466565      -71.2400736363  IONS      3               1.0000000000
     29820      7148  POT       POT            20.0734523524        2.9112310164      -49.1987090259  IONS      4               1.0000000000
     29821      7149  POT       POT           -22.5152686607        6.6335099810      -37.7430895852  IONS      5               1.0000000000
     29822      7150  POT       POT            -0.9643142991      -10.6158724447       25.8266067007  IONS      6               1.0000000000
     29823      7151  POT       POT            12.7162821213       -5.1218484044       51.8585816068  IONS      7               1.0000000000
     29824      7152  POT       POT            11.9943086210       -2.0628859197      -62.9366577797  IONS      8               1.0000000000
     29825      7153  POT       POT           -17.1466849410      -20.1997318885       37.2118299976  IONS      9               1.0000000000
     29826      7154  POT       POT             0.0283840747        1.9213846105       66.2037010829  IONS      10              1.0000000000
     29827      7155  POT       POT            11.9681172135      -22.3455541642       39.1167208992  IONS      11              1.0000000000
     29828      7156  POT       POT            -8.5191418865      -21.5198471145      -27.5976325785  IONS      12              1.0000000000
     29829      7157  POT       POT            -8.2152700182       12.3522789268      -31.8995125091  IONS      13              1.0000000000
     29830      7158  POT       POT             4.0358271180      -14.3761439053      -24.4559245446  IONS      14              1.0000000000
     29831      7159  POT       POT           -17.5394282404       -4.9389766067      -45.8154166095  IONS      15              1.0000000000
     29832      7160  POT       POT            -1.2561905523       17.8319337079       23.5951523868  IONS      16              1.0000000000
     29833      7161  POT       POT           -20.4924499619       -3.6298200843       39.3227637812  IONS      17              1.0000000000
     29834      7162  POT       POT            -9.6443614822        0.2066176003      -59.9758846260  IONS      18              1.0000000000
     29835      7163  CLA       CLA             9.8497997845       -3.2462973442       30.9708456184  IONS      19             -1.0000000000
     29836      7164  CLA       CLA           -22.7153277527        9.9830780156      -21.1202532427  IONS      20             -1.0000000000
     29837      7165  CLA       CLA           -11.3768694562       -6.8199081021       56.0100848817  IONS      21             -1.0000000000
     29838      7166  CLA       CLA             2.9677896845       -6.9878781273      -65.0465295415  IONS      22             -1.0000000000
     29839      7167  CLA       CLA            11.3884058567       -0.6813852650      -50.7472059875  IONS      23             -1.0000000000
     29840      7168  CLA       CLA            -9.8919760306        0.0505643885      -44.5203510348  IONS      24             -1.0000000000
     29841      7169  CLA       CLA             4.2761185148        9.4709286989      -27.3362259675  IONS      25             -1.0000000000
     29842      7170  CLA       CLA            18.8577804814       11.8197644685       60.6308443031  IONS      26             -1.0000000000
     29843      7171  CLA       CLA             4.8453374604       -9.2561630564       50.9277798648  IONS      27             -1.0000000000
     29844      7172  CLA       CLA            -6.3612639454      -15.9951368203      -30.3616697141  IONS      28             -1.0000000000
     29845      7173  CLA       CLA            13.0730585022      -14.4387339973       48.4043684819  IONS      29             -1.0000000000
     29846      7174  CLA       CLA            15.2259308831      -23.2390265114       66.5321472185  IONS      30             -1.0000000000
     29847      7175  CLA       CLA           -16.3745952342      -20.1118503717      -61.9491157572  IONS      31             -1.0000000000
     29848      7176  CLA       CLA           -22.7340526625      -18.1394707470       63.6427086110  IONS      32             -1.0000000000
     29849      7177  CLA       CLA           -10.0854001593        1.8807053926      -71.6220931082  IONS      33             -1.0000000000
     29850      7178  CLA       CLA            13.0426014386        0.6244398698       37.4568712342  IONS      34             -1.0000000000
     29851      7179  CLA       CLA           -23.6913329263        4.1020436036      -23.8594134000  IONS      35             -1.0000000000
     29852      7180  CLA       CLA            12.0124637240       -5.1443887153       72.0994501459  IONS      36             -1.0000000000
