* GENERATED BY CHARMM-GUI (HTTP://WWW.CHARMM-GUI.ORG) V3.7 ON OCT, 25. 2022. JOB
* GENERATES ION CONFORMATION USING MONTE-CARLO SIMULATION
*  DATE:    10/25/22     16:32: 4      CREATED BY USER: apache
*
      8576  EXT
         1         1  POPC      N              -5.2425673947       -2.0765550716       19.4068166438  MEMB      1               0.0000000000
         2         1  POPC      C12            -4.7896875447       -1.1100060005       18.3217748908  MEMB      1               0.0000000000
         3         1  POPC      H12A           -5.1531501583       -0.1298115235       18.5929088645  MEMB      1               0.0000000000
         4         1  POPC      H12B           -5.3770501557       -1.4565950334       17.4843495623  MEMB      1               0.0000000000
         5         1  POPC      C13            -4.7510806322       -1.6767831251       20.8161911071  MEMB      1               0.0000000000
         6         1  POPC      H13A           -5.1979418234       -2.3165200527       21.5628178893  MEMB      1               0.0000000000
         7         1  POPC      H13B           -3.6997157701       -1.9229592886       20.8369098132  MEMB      1               0.0000000000
         8         1  POPC      H13C           -4.7571737161       -0.6015439784       20.9173035712  MEMB      1               0.0000000000
         9         1  POPC      C14            -6.7019621626       -2.1204875509       19.4548908096  MEMB      1               0.0000000000
        10         1  POPC      H14A           -7.0579569674       -2.9793583372       20.0044443808  MEMB      1               0.0000000000
        11         1  POPC      H14B           -7.1715345013       -1.2793816666       19.9431965268  MEMB      1               0.0000000000
        12         1  POPC      H14C           -7.0433762638       -2.1550829812       18.4308597408  MEMB      1               0.0000000000
        13         1  POPC      C15            -4.8401461515       -3.4704177867       19.1395657914  MEMB      1               0.0000000000
        14         1  POPC      H15A           -5.1868374240       -3.7571877052       18.1577470147  MEMB      1               0.0000000000
        15         1  POPC      H15B           -5.3732562600       -4.0345107600       19.8905605144  MEMB      1               0.0000000000
        16         1  POPC      H15C           -3.7902425413       -3.5850663437       19.3653049791  MEMB      1               0.0000000000
        17         1  POPC      C11            -3.3205884820       -1.1082780455       17.8716986198  MEMB      1               0.0000000000
        18         1  POPC      H11A           -3.2194122792       -0.6016192759       16.8881432229  MEMB      1               0.0000000000
        19         1  POPC      H11B           -2.9210016998       -2.1360412104       17.7362207978  MEMB      1               0.0000000000
        20         1  POPC      P              -2.6541826943        1.2671198484       18.8456420017  MEMB      1               0.0000000000
        21         1  POPC      O13            -1.6951533344        1.8441236000       19.8213404928  MEMB      1               0.0000000000
        22         1  POPC      O14            -4.0948887443        1.6831860838       19.1009884988  MEMB      1               0.0000000000
        23         1  POPC      O12            -2.5011766536       -0.3183817096       18.7454136884  MEMB      1               0.0000000000
        24         1  POPC      O11            -2.1120664978        1.7743244719       17.4756774554  MEMB      1               0.0000000000
        25         1  POPC      C1             -2.7576509970        2.9567694170       16.8996663708  MEMB      1               0.0000000000
        26         1  POPC      HA             -2.1623818203        3.3058648589       16.0289724459  MEMB      1               0.0000000000
        27         1  POPC      HB             -2.8138714967        3.7986187082       17.6224736174  MEMB      1               0.0000000000
        28         1  POPC      C2             -4.1735222530        2.6735177125       16.3335331548  MEMB      1               0.0000000000
        29         1  POPC      HS             -4.9368201200        2.4391764188       17.1060493155  MEMB      1               0.0000000000
        30         1  POPC      O21            -4.0010019263        1.5284041166       15.4474111458  MEMB      1               0.0000000000
        31         1  POPC      C21            -5.0428702978        0.8580074549       14.9850968306  MEMB      1               0.0000000000
        32         1  POPC      O22            -6.1898819514        1.1357397007       15.3222556756  MEMB      1               0.0000000000
        33         1  POPC      C22            -4.5952254448       -0.3620462087       14.0936555280  MEMB      1               0.0000000000
        34         1  POPC      H2R            -4.0443645809       -1.1034729248       14.7110366571  MEMB      1               0.0000000000
        35         1  POPC      H2S            -3.9599057537        0.0544453434       13.2829614044  MEMB      1               0.0000000000
        36         1  POPC      C3             -4.8056269984        3.9076285192       15.5798692284  MEMB      1               0.0000000000
        37         1  POPC      HX             -4.6513338526        4.8231830793       16.1900124252  MEMB      1               0.0000000000
        38         1  POPC      HY             -5.9162011147        3.9382175476       15.5766635248  MEMB      1               0.0000000000
        39         1  POPC      O31            -4.2207458339        4.1082035380       14.2904441373  MEMB      1               0.0000000000
        40         1  POPC      C31            -4.9181970620        3.8899593653       13.1619272054  MEMB      1               0.0000000000
        41         1  POPC      O32            -6.0636381961        3.4904411838       13.1039019042  MEMB      1               0.0000000000
        42         1  POPC      C32            -4.3209514596        4.5616192500       11.9644840848  MEMB      1               0.0000000000
        43         1  POPC      H2X            -3.4602529175        5.1677649206       12.3195988282  MEMB      1               0.0000000000
        44         1  POPC      H2Y            -4.9588126647        5.3487097751       11.5084771626  MEMB      1               0.0000000000
        45         1  POPC      C23            -5.6055550847       -1.2244700548       13.2782274649  MEMB      1               0.0000000000
        46         1  POPC      H3R            -5.9088468605       -0.7002794466       12.3467986070  MEMB      1               0.0000000000
        47         1  POPC      H3S            -6.5114580001       -1.4573733322       13.8777412641  MEMB      1               0.0000000000
        48         1  POPC      C24            -5.0485332490       -2.5588611842       12.7093038121  MEMB      1               0.0000000000
        49         1  POPC      H4R            -5.9255827878       -3.0544839222       12.2408351057  MEMB      1               0.0000000000
        50         1  POPC      H4S            -4.5694246369       -3.1782058158       13.4974585567  MEMB      1               0.0000000000
        51         1  POPC      C25            -3.9343315606       -2.2685807852       11.7401457623  MEMB      1               0.0000000000
        52         1  POPC      H5R            -3.4877013412       -3.2592606136       11.5090710354  MEMB      1               0.0000000000
        53         1  POPC      H5S            -3.2175417659       -1.5316506007       12.1614146573  MEMB      1               0.0000000000
        54         1  POPC      C26            -4.5050009113       -1.7376151002       10.3129786106  MEMB      1               0.0000000000
        55         1  POPC      H6R            -4.8852840068       -0.7018433466       10.4429114218  MEMB      1               0.0000000000
        56         1  POPC      H6S            -5.3506748940       -2.3792720971        9.9852084699  MEMB      1               0.0000000000
        57         1  POPC      C27            -3.3479898939       -1.8356941747        9.2742429106  MEMB      1               0.0000000000
        58         1  POPC      H7R            -2.7884922480       -2.7793129192        9.4499336248  MEMB      1               0.0000000000
        59         1  POPC      H7S            -2.5919551808       -1.0740554160        9.5617139904  MEMB      1               0.0000000000
        60         1  POPC      C28            -3.7880824886       -1.7889678811        7.8432980003  MEMB      1               0.0000000000
        61         1  POPC      H8R            -4.0919195751       -0.7626575003        7.5454877295  MEMB      1               0.0000000000
        62         1  POPC      H8S            -4.7143751512       -2.3993756995        7.7824262353  MEMB      1               0.0000000000
        63         1  POPC      C29            -2.7200283870       -2.1765622031        6.7914965454  MEMB      1               0.0000000000
        64         1  POPC      H91            -1.7387831090       -1.7094205945        6.9616023369  MEMB      1               0.0000000000
        65         1  POPC      C210           -2.8126481101       -3.1310178728        5.8762591091  MEMB      1               0.0000000000
        66         1  POPC      H101           -1.9017769984       -3.4542810157        5.3510784402  MEMB      1               0.0000000000
        67         1  POPC      C211           -4.0456902559       -4.0172664906        5.7409341038  MEMB      1               0.0000000000
        68         1  POPC      H11R           -4.4973156381       -4.4126781974        6.6758167753  MEMB      1               0.0000000000
        69         1  POPC      H11S           -3.6753781428       -4.9291357300        5.2254886286  MEMB      1               0.0000000000
        70         1  POPC      C212           -5.0817165789       -3.4082058547        4.7847610261  MEMB      1               0.0000000000
        71         1  POPC      H12R           -5.2152860454       -2.3173444471        4.9475547033  MEMB      1               0.0000000000
        72         1  POPC      H12S           -5.9928762773       -3.9608503078        5.0989160780  MEMB      1               0.0000000000
        73         1  POPC      C213           -4.8680382502       -3.5904132773        3.2721431535  MEMB      1               0.0000000000
        74         1  POPC      H13R           -4.9907197843       -4.6768510991        3.0748532528  MEMB      1               0.0000000000
        75         1  POPC      H13S           -3.8546389604       -3.2082120938        3.0246258469  MEMB      1               0.0000000000
        76         1  POPC      C214           -5.8595997466       -2.8713085263        2.3776833849  MEMB      1               0.0000000000
        77         1  POPC      H14R           -6.1212483837       -1.8554355821        2.7435564476  MEMB      1               0.0000000000
        78         1  POPC      H14S           -6.7628224975       -3.4780980708        2.1533711616  MEMB      1               0.0000000000
        79         1  POPC      C215           -5.3405079123       -2.5736891560        0.9375937135  MEMB      1               0.0000000000
        80         1  POPC      H15R           -4.2694857709       -2.2848696898        0.9993615484  MEMB      1               0.0000000000
        81         1  POPC      H15S           -5.9179013971       -1.7095998266        0.5447980898  MEMB      1               0.0000000000
        82         1  POPC      C216           -5.4997387649       -3.8256353050        0.0260559757  MEMB      1               0.0000000000
        83         1  POPC      H16R           -6.5901730056       -4.0383846491        0.0226477930  MEMB      1               0.0000000000
        84         1  POPC      H16S           -5.0574183994       -4.7423145346        0.4714464183  MEMB      1               0.0000000000
        85         1  POPC      C217           -5.0000759522       -3.4396942873       -1.3209515121  MEMB      1               0.0000000000
        86         1  POPC      H17R           -4.3694049006       -4.1844072521       -1.8519681326  MEMB      1               0.0000000000
        87         1  POPC      H17S           -4.4700210055       -2.4659931978       -1.2483634965  MEMB      1               0.0000000000
        88         1  POPC      C218           -6.2121387721       -3.2346595044       -2.2290804038  MEMB      1               0.0000000000
        89         1  POPC      H18R           -5.7507800426       -2.7566547968       -3.1195755073  MEMB      1               0.0000000000
        90         1  POPC      H18S           -6.9794042624       -2.6148079472       -1.7177986372  MEMB      1               0.0000000000
        91         1  POPC      H18T           -6.6941002950       -4.1735075041       -2.5763529766  MEMB      1               0.0000000000
        92         1  POPC      C33            -3.8900573505        3.5116572184       10.9278015840  MEMB      1               0.0000000000
        93         1  POPC      H3X            -3.5871906926        3.9652098552        9.9598747945  MEMB      1               0.0000000000
        94         1  POPC      H3Y            -4.7365704073        2.8438491209       10.6599044241  MEMB      1               0.0000000000
        95         1  POPC      C34            -2.6904970551        2.7342323074       11.3216776223  MEMB      1               0.0000000000
        96         1  POPC      H4X            -2.9030073996        2.2240943271       12.2854823466  MEMB      1               0.0000000000
        97         1  POPC      H4Y            -1.8976044107        3.5110799912       11.3680451348  MEMB      1               0.0000000000
        98         1  POPC      C35            -2.2101649352        1.6605385626       10.3758177709  MEMB      1               0.0000000000
        99         1  POPC      H5X            -3.0631557144        1.1790717978        9.8514921750  MEMB      1               0.0000000000
       100         1  POPC      H5Y            -1.7366953815        0.9313432031       11.0674985540  MEMB      1               0.0000000000
       101         1  POPC      C36            -1.1733375717        2.2599126481        9.3494711649  MEMB      1               0.0000000000
       102         1  POPC      H6X            -0.4218078132        1.4867175078        9.0817151632  MEMB      1               0.0000000000
       103         1  POPC      H6Y            -0.6588141940        3.0873120464        9.8833233207  MEMB      1               0.0000000000
       104         1  POPC      C37            -1.7656199440        2.7268644643        8.0408371471  MEMB      1               0.0000000000
       105         1  POPC      H7X            -0.9995090664        3.4296687651        7.6490945675  MEMB      1               0.0000000000
       106         1  POPC      H7Y            -2.7055517230        3.2949412859        8.2085804239  MEMB      1               0.0000000000
       107         1  POPC      C38            -2.0093834663        1.5084750781        7.0610156687  MEMB      1               0.0000000000
       108         1  POPC      H8X            -2.7391509160        0.8173755799        7.5344523216  MEMB      1               0.0000000000
       109         1  POPC      H8Y            -1.0136869247        1.0350184649        6.9240911196  MEMB      1               0.0000000000
       110         1  POPC      C39            -2.4670942133        1.9907169943        5.7477377919  MEMB      1               0.0000000000
       111         1  POPC      H9X            -1.8433209443        2.8645677277        5.4620565970  MEMB      1               0.0000000000
       112         1  POPC      H9Y            -3.5262106948        2.3262349764        5.7431659936  MEMB      1               0.0000000000
       113         1  POPC      C310           -2.3058790015        0.9829309006        4.5497407881  MEMB      1               0.0000000000
       114         1  POPC      H10X           -2.9930330097        0.1153604901        4.6470141575  MEMB      1               0.0000000000
       115         1  POPC      H10Y           -1.2703294801        0.5860021193        4.6161156785  MEMB      1               0.0000000000
       116         1  POPC      C311           -2.5252726549        1.6298079014        3.2423581973  MEMB      1               0.0000000000
       117         1  POPC      H11X           -2.4684474087        0.9081435569        2.3995697366  MEMB      1               0.0000000000
       118         1  POPC      H11Y           -1.7967348162        2.4399519853        3.0250568800  MEMB      1               0.0000000000
       119         1  POPC      C312           -3.8980089539        2.2423013423        3.1515216940  MEMB      1               0.0000000000
       120         1  POPC      H12X           -3.9770044812        3.2100336512        3.6914985868  MEMB      1               0.0000000000
       121         1  POPC      H12Y           -4.7754683222        1.7274151856        3.5979277643  MEMB      1               0.0000000000
       122         1  POPC      C313           -4.2466857910        2.5565603125        1.6563216294  MEMB      1               0.0000000000
       123         1  POPC      H13X           -3.2963892977        2.9523617522        1.2384701799  MEMB      1               0.0000000000
       124         1  POPC      H13Y           -5.1028152912        3.2610234786        1.5849403209  MEMB      1               0.0000000000
       125         1  POPC      C314           -4.5016178389        1.2503962880        0.7927787038  MEMB      1               0.0000000000
       126         1  POPC      H14X           -5.3461784112        0.6875789773        1.2447475141  MEMB      1               0.0000000000
       127         1  POPC      H14Y           -3.6191550794        0.5815646744        0.8835833349  MEMB      1               0.0000000000
       128         1  POPC      C315           -4.7527400769        1.6732900908       -0.6504307812  MEMB      1               0.0000000000
       129         1  POPC      H15X           -3.8096013387        2.0391177645       -1.1097558771  MEMB      1               0.0000000000
       130         1  POPC      H15Y           -5.4481666391        2.5397011795       -0.6563230370  MEMB      1               0.0000000000
       131         1  POPC      C316           -5.1363020638        0.5576174907       -1.6800834622  MEMB      1               0.0000000000
       132         1  POPC      H16X           -4.5685311737       -0.3620495327       -1.4228482417  MEMB      1               0.0000000000
       133         1  POPC      H16Y           -4.8364668466        0.6811546487       -2.7427007771  MEMB      1               0.0000000000
       134         1  POPC      H16Z           -6.1898613895        0.2306454718       -1.5480876118  MEMB      1               0.0000000000
       135         2  POPC      N               5.6383902862        3.3253661159       20.1240741860  MEMB      2               0.0000000000
       136         2  POPC      C12             5.1256222362        1.9320126112       20.5430060862  MEMB      2               0.0000000000
       137         2  POPC      H12A            4.4207618390        2.0732517438       21.3489982085  MEMB      2               0.0000000000
       138         2  POPC      H12B            5.9212997447        1.3526229470       20.9875338749  MEMB      2               0.0000000000
       139         2  POPC      C13             4.4675699533        4.2702029472       20.0124483139  MEMB      2               0.0000000000
       140         2  POPC      H13A            3.9257540275        4.3323451159       20.9446360420  MEMB      2               0.0000000000
       141         2  POPC      H13B            4.7908813399        5.2831717315       19.8233340484  MEMB      2               0.0000000000
       142         2  POPC      H13C            3.7519433038        3.9815093962       19.2568461553  MEMB      2               0.0000000000
       143         2  POPC      C14             6.7153019166        3.8206352173       21.0442910879  MEMB      2               0.0000000000
       144         2  POPC      H14A            6.8125269062        4.8914208369       20.9424805088  MEMB      2               0.0000000000
       145         2  POPC      H14B            6.4554180740        3.5053855508       22.0440301033  MEMB      2               0.0000000000
       146         2  POPC      H14C            7.6888075741        3.4091811040       20.8220470778  MEMB      2               0.0000000000
       147         2  POPC      C15             6.2466618935        3.1850769966       18.7244461334  MEMB      2               0.0000000000
       148         2  POPC      H15A            6.9313800758        2.3510902215       18.7694694151  MEMB      2               0.0000000000
       149         2  POPC      H15B            6.8596202450        4.0255101336       18.4340083700  MEMB      2               0.0000000000
       150         2  POPC      H15C            5.5243953543        2.9652840579       17.9521622830  MEMB      2               0.0000000000
       151         2  POPC      C11             4.3901847240        1.0524916837       19.4725628236  MEMB      2               0.0000000000
       152         2  POPC      H11A            4.1082835187        0.0792123697       19.9281723347  MEMB      2               0.0000000000
       153         2  POPC      H11B            4.9412604343        0.7463062588       18.5577475524  MEMB      2               0.0000000000
       154         2  POPC      P               2.3370630670        0.7898344912       17.8155045379  MEMB      2               0.0000000000
       155         2  POPC      O13             0.9984674380        1.4221670679       17.6690415871  MEMB      2               0.0000000000
       156         2  POPC      O14             2.4299770279       -0.6233714185       18.0713141392  MEMB      2               0.0000000000
       157         2  POPC      O12             3.2077523921        1.6113730255       19.0048033594  MEMB      2               0.0000000000
       158         2  POPC      O11             3.1868597583        1.1666812538       16.5185077505  MEMB      2               0.0000000000
       159         2  POPC      C1              2.8708376165        2.3383718805       15.7992871656  MEMB      2               0.0000000000
       160         2  POPC      HA              3.8559871507        2.8425148980       15.7010971562  MEMB      2               0.0000000000
       161         2  POPC      HB              2.2123850958        3.0424284145       16.3516147804  MEMB      2               0.0000000000
       162         2  POPC      C2              2.1933032077        1.9513532705       14.4736722092  MEMB      2               0.0000000000
       163         2  POPC      HS              1.2657594789        1.3678643927       14.6567686231  MEMB      2               0.0000000000
       164         2  POPC      O21             3.0469543964        1.1650591859       13.6337105521  MEMB      2               0.0000000000
       165         2  POPC      C21             2.7984815921       -0.1428356202       13.3889406105  MEMB      2               0.0000000000
       166         2  POPC      O22             1.7617304744       -0.7055119462       13.6392083646  MEMB      2               0.0000000000
       167         2  POPC      C22             3.8998596239       -0.7661427579       12.5644722945  MEMB      2               0.0000000000
       168         2  POPC      H2R             3.4705323888       -1.5632033362       11.9205052298  MEMB      2               0.0000000000
       169         2  POPC      H2S             4.6882113274       -1.1842707407       13.2262815816  MEMB      2               0.0000000000
       170         2  POPC      C3              1.7223133034        3.2559778146       13.6914612163  MEMB      2               0.0000000000
       171         2  POPC      HX              2.7222246342        3.7184127426       13.5477523978  MEMB      2               0.0000000000
       172         2  POPC      HY              1.0555441840        4.0029309595       14.1729185783  MEMB      2               0.0000000000
       173         2  POPC      O31             1.1966842269        2.9866121259       12.4008953549  MEMB      2               0.0000000000
       174         2  POPC      C31            -0.1112137589        2.5439220790       12.3840090179  MEMB      2               0.0000000000
       175         2  POPC      O32            -0.8779468445        2.5277726560       13.3429691885  MEMB      2               0.0000000000
       176         2  POPC      C32            -0.4879076865        2.1188454294       10.9855019941  MEMB      2               0.0000000000
       177         2  POPC      H2X            -1.5965422132        2.0463819358       10.9857861742  MEMB      2               0.0000000000
       178         2  POPC      H2Y            -0.0041612972        1.1972418253       10.5969703678  MEMB      2               0.0000000000
       179         2  POPC      C23             4.5542922163        0.3314654182       11.6584389213  MEMB      2               0.0000000000
       180         2  POPC      H3R             5.6095070022        0.0170298927       11.5102062234  MEMB      2               0.0000000000
       181         2  POPC      H3S             4.7018610068        1.3602344180       12.0510952677  MEMB      2               0.0000000000
       182         2  POPC      C24             3.8736550989        0.6469752621       10.3048984603  MEMB      2               0.0000000000
       183         2  POPC      H4R             2.9633110697        1.1833403462       10.6482744490  MEMB      2               0.0000000000
       184         2  POPC      H4S             3.6926867146       -0.3048809879        9.7612609972  MEMB      2               0.0000000000
       185         2  POPC      C25             4.8195745687        1.4494839457        9.3914008124  MEMB      2               0.0000000000
       186         2  POPC      H5R             4.3283089911        1.7144338637        8.4307857884  MEMB      2               0.0000000000
       187         2  POPC      H5S             5.6279124514        0.7252470023        9.1539308676  MEMB      2               0.0000000000
       188         2  POPC      C26             5.3839282870        2.7155954648        9.9527998187  MEMB      2               0.0000000000
       189         2  POPC      H6R             6.2296367792        3.1157921552        9.3536824500  MEMB      2               0.0000000000
       190         2  POPC      H6S             5.8474471011        2.5590054097       10.9502717544  MEMB      2               0.0000000000
       191         2  POPC      C27             4.2258505974        3.7696755929       10.0482669334  MEMB      2               0.0000000000
       192         2  POPC      H7R             4.2849114865        4.4392067024       10.9328909991  MEMB      2               0.0000000000
       193         2  POPC      H7S             3.2732784655        3.2561587538       10.2997184711  MEMB      2               0.0000000000
       194         2  POPC      C28             4.1750479338        4.6738037316        8.7656871311  MEMB      2               0.0000000000
       195         2  POPC      H8R             4.3130501473        3.8401011938        8.0444273225  MEMB      2               0.0000000000
       196         2  POPC      H8S             5.0317613821        5.3739384219        8.6648184280  MEMB      2               0.0000000000
       197         2  POPC      C29             2.8515701826        5.4637664045        8.5198996377  MEMB      2               0.0000000000
       198         2  POPC      H91             2.4831919540        6.0045790591        9.4041049749  MEMB      2               0.0000000000
       199         2  POPC      C210            2.1096397766        5.5951482529        7.4212953516  MEMB      2               0.0000000000
       200         2  POPC      H101            1.1783952927        6.1759787513        7.4949120885  MEMB      2               0.0000000000
       201         2  POPC      C211            2.5009006262        4.9227330174        6.1450452385  MEMB      2               0.0000000000
       202         2  POPC      H11R            1.6593352209        5.0510201751        5.4311598624  MEMB      2               0.0000000000
       203         2  POPC      H11S            2.7308214851        3.8537598175        6.3419043692  MEMB      2               0.0000000000
       204         2  POPC      C212            3.6693020536        5.6475202972        5.4921127307  MEMB      2               0.0000000000
       205         2  POPC      H12R            4.5594473152        5.7386650254        6.1506377601  MEMB      2               0.0000000000
       206         2  POPC      H12S            3.4302567695        6.7053789370        5.2510458614  MEMB      2               0.0000000000
       207         2  POPC      C213            4.3008859933        4.9590839979        4.2588693407  MEMB      2               0.0000000000
       208         2  POPC      H13R            3.4739274844        4.9138959134        3.5183158316  MEMB      2               0.0000000000
       209         2  POPC      H13S            4.6877004506        3.9394116937        4.4709169522  MEMB      2               0.0000000000
       210         2  POPC      C214            5.4491145588        5.7220616426        3.6360769228  MEMB      2               0.0000000000
       211         2  POPC      H14R            6.1938141981        5.6454380899        4.4569737843  MEMB      2               0.0000000000
       212         2  POPC      H14S            5.1782363353        6.7770570731        3.4171455084  MEMB      2               0.0000000000
       213         2  POPC      C215            6.0444860587        5.2444038705        2.2352254465  MEMB      2               0.0000000000
       214         2  POPC      H15R            6.3997166388        6.1182255409        1.6482255817  MEMB      2               0.0000000000
       215         2  POPC      H15S            5.1493960936        4.8260296445        1.7271907414  MEMB      2               0.0000000000
       216         2  POPC      C216            7.1413502852        4.1782389379        2.3536129469  MEMB      2               0.0000000000
       217         2  POPC      H16R            6.6657301921        3.3786138818        2.9608230215  MEMB      2               0.0000000000
       218         2  POPC      H16S            7.9946100843        4.6501223784        2.8861492437  MEMB      2               0.0000000000
       219         2  POPC      C217            7.7935126802        3.7151688723        1.0134274605  MEMB      2               0.0000000000
       220         2  POPC      H17R            8.6840827419        3.1322520838        1.3318832764  MEMB      2               0.0000000000
       221         2  POPC      H17S            8.1633571684        4.5511837443        0.3820663924  MEMB      2               0.0000000000
       222         2  POPC      C218            6.9009948692        2.7786465938        0.1132998375  MEMB      2               0.0000000000
       223         2  POPC      H18R            7.6260141642        2.3486363753       -0.6104129430  MEMB      2               0.0000000000
       224         2  POPC      H18S            6.0008410487        3.2720717949       -0.3116410963  MEMB      2               0.0000000000
       225         2  POPC      H18T            6.4739027656        1.9581029096        0.7286214551  MEMB      2               0.0000000000
       226         2  POPC      C33            -0.1200954823        3.2547670508       10.0113184576  MEMB      2               0.0000000000
       227         2  POPC      H3X             0.9821051042        3.2612189041        9.8719146013  MEMB      2               0.0000000000
       228         2  POPC      H3Y            -0.2974459292        4.2676673992       10.4319136195  MEMB      2               0.0000000000
       229         2  POPC      C34            -0.7915715258        3.0393154033        8.6343230309  MEMB      2               0.0000000000
       230         2  POPC      H4X            -0.5432577417        3.8774133720        7.9485733110  MEMB      2               0.0000000000
       231         2  POPC      H4Y            -1.8890489955        3.1059958281        8.7937515946  MEMB      2               0.0000000000
       232         2  POPC      C35            -0.4084741226        1.7310473460        7.9238828402  MEMB      2               0.0000000000
       233         2  POPC      H5X            -0.8660263044        1.5611987417        6.9258260979  MEMB      2               0.0000000000
       234         2  POPC      H5Y            -0.5399736205        0.8062037331        8.5252926158  MEMB      2               0.0000000000
       235         2  POPC      C36             1.1167114716        1.6621971644        7.6389887999  MEMB      2               0.0000000000
       236         2  POPC      H6X             1.8290200820        1.5089918166        8.4777177694  MEMB      2               0.0000000000
       237         2  POPC      H6Y             1.1891690071        2.5711173799        7.0042170172  MEMB      2               0.0000000000
       238         2  POPC      C37             1.4753208402        0.6558758564        6.5707435724  MEMB      2               0.0000000000
       239         2  POPC      H7X             0.8474353872        1.0189163674        5.7291482921  MEMB      2               0.0000000000
       240         2  POPC      H7Y             1.0418411304       -0.2974030418        6.9417913058  MEMB      2               0.0000000000
       241         2  POPC      C38             2.9457463312        0.6288713318        6.0415351956  MEMB      2               0.0000000000
       242         2  POPC      H8X             3.4341604484       -0.1306336248        6.6887793261  MEMB      2               0.0000000000
       243         2  POPC      H8Y             3.3214057622        1.6693178681        6.1448409290  MEMB      2               0.0000000000
       244         2  POPC      C39             3.1356335934        0.1310944743        4.6117570716  MEMB      2               0.0000000000
       245         2  POPC      H9X             2.6176690064       -0.8408085048        4.4653382220  MEMB      2               0.0000000000
       246         2  POPC      H9Y             4.2249702579       -0.0738603649        4.5365221492  MEMB      2               0.0000000000
       247         2  POPC      C310            2.7258977231        1.1429275804        3.5412522339  MEMB      2               0.0000000000
       248         2  POPC      H10X            3.6112206478        1.8000837830        3.4046142346  MEMB      2               0.0000000000
       249         2  POPC      H10Y            1.9080557278        1.7684206445        3.9586414467  MEMB      2               0.0000000000
       250         2  POPC      C311            2.3609436157        0.5082288572        2.1807174651  MEMB      2               0.0000000000
       251         2  POPC      H11X            2.0816295626        1.2022426703        1.3593471968  MEMB      2               0.0000000000
       252         2  POPC      H11Y            1.5311883568       -0.2103233219        2.3525017158  MEMB      2               0.0000000000
       253         2  POPC      C312            3.5554647121       -0.2954402805        1.5069648207  MEMB      2               0.0000000000
       254         2  POPC      H12X            3.8943476256       -1.0521802301        2.2464420213  MEMB      2               0.0000000000
       255         2  POPC      H12Y            4.3310380892        0.4882864375        1.3706591034  MEMB      2               0.0000000000
       256         2  POPC      C313            3.1662186794       -0.9913122173        0.1800220372  MEMB      2               0.0000000000
       257         2  POPC      H13X            2.2616217237       -1.6224732340        0.3129188692  MEMB      2               0.0000000000
       258         2  POPC      H13Y            3.8880105417       -1.7512130215       -0.1886074847  MEMB      2               0.0000000000
       259         2  POPC      C314            2.9884056992       -0.0481782686       -1.0075902686  MEMB      2               0.0000000000
       260         2  POPC      H14X            3.9509453944        0.3922710578       -1.3449960089  MEMB      2               0.0000000000
       261         2  POPC      H14Y            2.3931536092        0.8146622111       -0.6394837858  MEMB      2               0.0000000000
       262         2  POPC      C315            2.3064677977       -0.6430487309       -2.2788298993  MEMB      2               0.0000000000
       263         2  POPC      H15X            2.7111013435       -1.6719592606       -2.3880820124  MEMB      2               0.0000000000
       264         2  POPC      H15Y            2.5068418159        0.0296672577       -3.1400067925  MEMB      2               0.0000000000
       265         2  POPC      C316            0.7616440250       -0.7967508988       -2.1652655713  MEMB      2               0.0000000000
       266         2  POPC      H16X            0.1823992898        0.1074322607       -1.8802224471  MEMB      2               0.0000000000
       267         2  POPC      H16Y            0.4505910083       -1.5976730053       -1.4609290134  MEMB      2               0.0000000000
       268         2  POPC      H16Z            0.3910011524       -1.0495528228       -3.1816496700  MEMB      2               0.0000000000
       269         3  POPC      N               2.4740034937       -6.6992577452       21.2238106269  MEMB      3               0.0000000000
       270         3  POPC      C12             3.2586370328       -7.6163069275       20.3063746300  MEMB      3               0.0000000000
       271         3  POPC      H12A            3.2794933374       -8.5617305169       20.8280445750  MEMB      3               0.0000000000
       272         3  POPC      H12B            4.2753529672       -7.2536908003       20.3409902074  MEMB      3               0.0000000000
       273         3  POPC      C13             3.1722546369       -6.7582801608       22.5960413767  MEMB      3               0.0000000000
       274         3  POPC      H13A            3.0521833373       -7.6980781003       23.1144646174  MEMB      3               0.0000000000
       275         3  POPC      H13B            4.2194171044       -6.5035005232       22.5257697671  MEMB      3               0.0000000000
       276         3  POPC      H13C            2.7558694316       -5.9611692922       23.1940692687  MEMB      3               0.0000000000
       277         3  POPC      C14             2.6417249127       -5.2601779471       20.8053944399  MEMB      3               0.0000000000
       278         3  POPC      H14A            3.6916702265       -5.0156462083       20.7404410110  MEMB      3               0.0000000000
       279         3  POPC      H14B            2.1238354495       -5.0883994136       19.8733630079  MEMB      3               0.0000000000
       280         3  POPC      H14C            2.2263783589       -4.6330269598       21.5803583444  MEMB      3               0.0000000000
       281         3  POPC      C15             1.0408664549       -7.1399944265       21.3928851477  MEMB      3               0.0000000000
       282         3  POPC      H15A            0.4859483125       -7.0782014266       20.4684138685  MEMB      3               0.0000000000
       283         3  POPC      H15B            0.5802231099       -6.4628475304       22.0969306389  MEMB      3               0.0000000000
       284         3  POPC      H15C            0.9862320321       -8.0935913224       21.8969368337  MEMB      3               0.0000000000
       285         3  POPC      C11             2.8631846257       -7.6989962048       18.8517934401  MEMB      3               0.0000000000
       286         3  POPC      H11A            1.7870842097       -7.7907695065       18.5912043439  MEMB      3               0.0000000000
       287         3  POPC      H11B            3.2930745162       -8.6384314682       18.4431653574  MEMB      3               0.0000000000
       288         3  POPC      P               3.1843818654       -6.2594138407       16.7228132277  MEMB      3               0.0000000000
       289         3  POPC      O13             3.3599716072       -7.5218342961       16.0181924340  MEMB      3               0.0000000000
       290         3  POPC      O14             4.1394662276       -5.2103153253       16.4179225925  MEMB      3               0.0000000000
       291         3  POPC      O12             3.3328213927       -6.5012548961       18.2487752034  MEMB      3               0.0000000000
       292         3  POPC      O11             1.6872826744       -5.6816085484       16.4159968762  MEMB      3               0.0000000000
       293         3  POPC      C1              1.0536604980       -4.7961499788       17.3534353272  MEMB      3               0.0000000000
       294         3  POPC      HA              1.8163699136       -4.5039608083       18.1065759433  MEMB      3               0.0000000000
       295         3  POPC      HB              0.1792369856       -5.1760883261       17.9238311045  MEMB      3               0.0000000000
       296         3  POPC      C2              0.5467642703       -3.5224454958       16.6205718496  MEMB      3               0.0000000000
       297         3  POPC      HS             -0.2015432056       -3.0567554545       17.2969516051  MEMB      3               0.0000000000
       298         3  POPC      O21            -0.2135426420       -4.0287751721       15.4744642855  MEMB      3               0.0000000000
       299         3  POPC      C21            -1.4316297755       -4.4979422554       15.7250494896  MEMB      3               0.0000000000
       300         3  POPC      O22            -1.9394999315       -4.5086623321       16.8172993873  MEMB      3               0.0000000000
       301         3  POPC      C22            -2.0702610632       -5.1353452813       14.5243512446  MEMB      3               0.0000000000
       302         3  POPC      H2R            -2.4420230647       -4.3683783330       13.8116976260  MEMB      3               0.0000000000
       303         3  POPC      H2S            -2.9584001109       -5.7171634944       14.8514874780  MEMB      3               0.0000000000
       304         3  POPC      C3              1.6289167594       -2.5337232062       16.1835067189  MEMB      3               0.0000000000
       305         3  POPC      HX              2.2197070684       -2.2507540183       17.0808450732  MEMB      3               0.0000000000
       306         3  POPC      HY              1.2599865523       -1.5909778640       15.7258578655  MEMB      3               0.0000000000
       307         3  POPC      O31             2.6344665301       -3.1611296373       15.3729233153  MEMB      3               0.0000000000
       308         3  POPC      C31             2.9404911417       -2.6913685816       14.1479862530  MEMB      3               0.0000000000
       309         3  POPC      O32             2.7001110941       -1.5880480153       13.7831135117  MEMB      3               0.0000000000
       310         3  POPC      C32             3.7647828116       -3.8095901825       13.4163471918  MEMB      3               0.0000000000
       311         3  POPC      H2X             3.2239941194       -4.7712249521       13.5472172874  MEMB      3               0.0000000000
       312         3  POPC      H2Y             4.7013701503       -3.9312752520       14.0014269252  MEMB      3               0.0000000000
       313         3  POPC      C23            -1.0816729753       -6.0777680596       13.8869234877  MEMB      3               0.0000000000
       314         3  POPC      H3R            -0.6227726820       -6.7060457120       14.6800179479  MEMB      3               0.0000000000
       315         3  POPC      H3S            -0.3328734842       -5.4770434942       13.3276825204  MEMB      3               0.0000000000
       316         3  POPC      C24            -1.7340113631       -7.0125365112       12.8834946090  MEMB      3               0.0000000000
       317         3  POPC      H4R            -2.0514795436       -6.3919765539       12.0183705517  MEMB      3               0.0000000000
       318         3  POPC      H4S            -2.6356580422       -7.3896880390       13.4118044347  MEMB      3               0.0000000000
       319         3  POPC      C25            -0.9112564924       -8.2379231676       12.3774023837  MEMB      3               0.0000000000
       320         3  POPC      H5R            -1.6295481595       -8.8654772334       11.8077060982  MEMB      3               0.0000000000
       321         3  POPC      H5S            -0.5667900339       -8.9147229292       13.1883314237  MEMB      3               0.0000000000
       322         3  POPC      C26             0.2811644204       -7.7572466665       11.5610333481  MEMB      3               0.0000000000
       323         3  POPC      H6R             0.8836096635       -7.0764749470       12.1997278133  MEMB      3               0.0000000000
       324         3  POPC      H6S             0.0148583085       -7.0357713718       10.7592382423  MEMB      3               0.0000000000
       325         3  POPC      C27             0.9692176993       -8.9598993975       10.8688346262  MEMB      3               0.0000000000
       326         3  POPC      H7R             0.1866250231       -9.3800608497       10.2015014434  MEMB      3               0.0000000000
       327         3  POPC      H7S             1.1705902273       -9.7440245304       11.6297011524  MEMB      3               0.0000000000
       328         3  POPC      C28             2.2528685508       -8.5890017584       10.1538507712  MEMB      3               0.0000000000
       329         3  POPC      H8R             2.8684497151       -7.9579139726       10.8299490510  MEMB      3               0.0000000000
       330         3  POPC      H8S             2.0748798823       -7.9944516341        9.2323569890  MEMB      3               0.0000000000
       331         3  POPC      C29             2.8924168359       -9.8726490281        9.7882475102  MEMB      3               0.0000000000
       332         3  POPC      H91             3.1372873347      -10.5800142525       10.5942706813  MEMB      3               0.0000000000
       333         3  POPC      C210            3.1799423021      -10.1943678943        8.5125123027  MEMB      3               0.0000000000
       334         3  POPC      H101            3.5103500344      -11.2189122304        8.2863703776  MEMB      3               0.0000000000
       335         3  POPC      C211            2.9893537712       -9.3297036147        7.2492329844  MEMB      3               0.0000000000
       336         3  POPC      H11R            3.2615257743       -8.2634006681        7.4016842233  MEMB      3               0.0000000000
       337         3  POPC      H11S            1.9500937815       -9.4664062669        6.8810316640  MEMB      3               0.0000000000
       338         3  POPC      C212            4.0461097907       -9.6419128296        6.1469888891  MEMB      3               0.0000000000
       339         3  POPC      H12R            4.3106308089      -10.7188986918        6.0802735109  MEMB      3               0.0000000000
       340         3  POPC      H12S            4.9886425898       -9.1946342232        6.5289510105  MEMB      3               0.0000000000
       341         3  POPC      C213            3.6293837832       -9.0250164551        4.8651433214  MEMB      3               0.0000000000
       342         3  POPC      H13R            3.2695504897       -7.9783909270        4.9621785745  MEMB      3               0.0000000000
       343         3  POPC      H13S            2.7387918055       -9.6461116690        4.6297550797  MEMB      3               0.0000000000
       344         3  POPC      C214            4.5703484173       -9.1936706352        3.6791958918  MEMB      3               0.0000000000
       345         3  POPC      H14R            3.9995045282       -9.2799217008        2.7299756756  MEMB      3               0.0000000000
       346         3  POPC      H14S            5.1254321832      -10.1546588651        3.7312051274  MEMB      3               0.0000000000
       347         3  POPC      C215            5.4759586194       -7.9289455715        3.3888975557  MEMB      3               0.0000000000
       348         3  POPC      H15R            6.0174243025       -7.8332154232        4.3542844296  MEMB      3               0.0000000000
       349         3  POPC      H15S            4.9024067328       -7.0009096229        3.1788773631  MEMB      3               0.0000000000
       350         3  POPC      C216            6.4955400192       -8.2183006513        2.2615484689  MEMB      3               0.0000000000
       351         3  POPC      H16R            6.9439803799       -9.2228958018        2.4165012639  MEMB      3               0.0000000000
       352         3  POPC      H16S            7.2712822728       -7.4267170260        2.3386234191  MEMB      3               0.0000000000
       353         3  POPC      C217            5.7877984141       -8.0732011944        0.9336176497  MEMB      3               0.0000000000
       354         3  POPC      H17R            5.4263880608       -7.0339477239        0.7798131164  MEMB      3               0.0000000000
       355         3  POPC      H17S            4.8525763851       -8.6727697102        0.9195335750  MEMB      3               0.0000000000
       356         3  POPC      C218            6.5513080867       -8.3566331833       -0.3624077945  MEMB      3               0.0000000000
       357         3  POPC      H18R            6.8533188298       -9.4230026950       -0.2851666076  MEMB      3               0.0000000000
       358         3  POPC      H18S            7.4573926565       -7.7266684740       -0.4907668874  MEMB      3               0.0000000000
       359         3  POPC      H18T            5.9379799551       -8.3028509932       -1.2872085676  MEMB      3               0.0000000000
       360         3  POPC      C33             4.1754068807       -3.5413654024       11.9638218814  MEMB      3               0.0000000000
       361         3  POPC      H3X             5.2832220013       -3.4858148586       12.0269115517  MEMB      3               0.0000000000
       362         3  POPC      H3Y             3.7516265014       -2.5793181306       11.6043828077  MEMB      3               0.0000000000
       363         3  POPC      C34             3.6961957500       -4.6851145695       11.0257059799  MEMB      3               0.0000000000
       364         3  POPC      H4X             3.9164652612       -5.6761912469       11.4768927588  MEMB      3               0.0000000000
       365         3  POPC      H4Y             4.1445240387       -4.5537881190       10.0176995743  MEMB      3               0.0000000000
       366         3  POPC      C35             2.1708030606       -4.6267205411       10.8047039722  MEMB      3               0.0000000000
       367         3  POPC      H5X             1.7086430596       -4.7915547232       11.8014783370  MEMB      3               0.0000000000
       368         3  POPC      H5Y             1.7888150367       -5.3360733140       10.0397039507  MEMB      3               0.0000000000
       369         3  POPC      C36             1.4761388379       -3.3696199179       10.2363829502  MEMB      3               0.0000000000
       370         3  POPC      H6X             1.4102188864       -2.6476931726       11.0782836982  MEMB      3               0.0000000000
       371         3  POPC      H6Y             0.4339424766       -3.6321073626        9.9548723279  MEMB      3               0.0000000000
       372         3  POPC      C37             2.1470192915       -2.6475006388        9.1371393524  MEMB      3               0.0000000000
       373         3  POPC      H7X             3.2294844658       -2.5434890867        9.3646733688  MEMB      3               0.0000000000
       374         3  POPC      H7Y             1.8003667960       -1.5920742389        9.1522226055  MEMB      3               0.0000000000
       375         3  POPC      C38             1.8796783412       -3.2374123051        7.7150065653  MEMB      3               0.0000000000
       376         3  POPC      H8X             2.1527768158       -4.3107827005        7.8022657797  MEMB      3               0.0000000000
       377         3  POPC      H8Y             2.6314032836       -2.7078516305        7.0914713697  MEMB      3               0.0000000000
       378         3  POPC      C39             0.4290887049       -2.9374995528        7.1700845743  MEMB      3               0.0000000000
       379         3  POPC      H9X             0.4028266091       -1.8290823529        7.0990741094  MEMB      3               0.0000000000
       380         3  POPC      H9Y            -0.2322615204       -3.3807875762        7.9449613260  MEMB      3               0.0000000000
       381         3  POPC      C310            0.0103374442       -3.4792675624        5.8381636287  MEMB      3               0.0000000000
       382         3  POPC      H10X           -1.0930414347       -3.3506565116        5.8564688135  MEMB      3               0.0000000000
       383         3  POPC      H10Y            0.3949018041       -4.5186124824        5.9168636039  MEMB      3               0.0000000000
       384         3  POPC      C311            0.5983587458       -2.7921110684        4.5076187058  MEMB      3               0.0000000000
       385         3  POPC      H11X            1.6858204655       -3.0127503727        4.4522485767  MEMB      3               0.0000000000
       386         3  POPC      H11Y            0.3556254608       -1.7085032775        4.5422022987  MEMB      3               0.0000000000
       387         3  POPC      C312           -0.0540420905       -3.2167929914        3.1645341685  MEMB      3               0.0000000000
       388         3  POPC      H12X            0.1996727234       -2.5311939463        2.3279308363  MEMB      3               0.0000000000
       389         3  POPC      H12Y           -1.1484970582       -3.4077383788        3.1591062261  MEMB      3               0.0000000000
       390         3  POPC      C313            0.5570422964       -4.6200372873        2.8157089277  MEMB      3               0.0000000000
       391         3  POPC      H13X            0.4925276204       -5.0813987213        3.8243237906  MEMB      3               0.0000000000
       392         3  POPC      H13Y            1.5958299641       -4.5204951012        2.4344827882  MEMB      3               0.0000000000
       393         3  POPC      C314           -0.1684694661       -5.4197045184        1.6780486105  MEMB      3               0.0000000000
       394         3  POPC      H14X           -0.3735529659       -4.8626473940        0.7389264987  MEMB      3               0.0000000000
       395         3  POPC      H14Y           -1.0456201635       -5.9556152286        2.0996258563  MEMB      3               0.0000000000
       396         3  POPC      C315            0.6887737728       -6.5765041721        1.1510306882  MEMB      3               0.0000000000
       397         3  POPC      H15X            1.6971433384       -6.2540114488        0.8141182083  MEMB      3               0.0000000000
       398         3  POPC      H15Y            0.1370595644       -6.9523022076        0.2629375325  MEMB      3               0.0000000000
       399         3  POPC      C316            0.9658092967       -7.6691668810        2.1197914138  MEMB      3               0.0000000000
       400         3  POPC      H16X            1.5610701975       -7.2768734170        2.9719004286  MEMB      3               0.0000000000
       401         3  POPC      H16Y            1.6185182990       -8.5054333436        1.7897152044  MEMB      3               0.0000000000
       402         3  POPC      H16Z            0.0007073015       -7.9436375787        2.5968287929  MEMB      3               0.0000000000
       403         4  POPC      N              -3.1823367265        8.6557460162       21.0347469873  MEMB      4               0.0000000000
       404         4  POPC      C12            -3.2747719067        7.4803697718       20.0668259403  MEMB      4               0.0000000000
       405         4  POPC      H12A           -4.2649862201        7.5165726926       19.6372155185  MEMB      4               0.0000000000
       406         4  POPC      H12B           -3.2707713677        6.5464839772       20.6092658682  MEMB      4               0.0000000000
       407         4  POPC      C13            -1.7428498546        8.7488238251       21.4910139487  MEMB      4               0.0000000000
       408         4  POPC      H13A           -1.3944491993        7.7583044804       21.7437754747  MEMB      4               0.0000000000
       409         4  POPC      H13B           -1.1383914154        9.2423830077       20.7444021228  MEMB      4               0.0000000000
       410         4  POPC      H13C           -1.7404992112        9.5080757048       22.2590838000  MEMB      4               0.0000000000
       411         4  POPC      C14            -3.6520968185        9.9453610714       20.5073576186  MEMB      4               0.0000000000
       412         4  POPC      H14A           -4.6624182418        9.8720166262       20.1328293644  MEMB      4               0.0000000000
       413         4  POPC      H14B           -3.5912301448       10.7211328924       21.2562722191  MEMB      4               0.0000000000
       414         4  POPC      H14C           -2.9907851207       10.2459439851       19.7081600851  MEMB      4               0.0000000000
       415         4  POPC      C15            -4.0453173223        8.2990477416       22.2386414594  MEMB      4               0.0000000000
       416         4  POPC      H15A           -3.6667916557        8.7766945609       23.1302534997  MEMB      4               0.0000000000
       417         4  POPC      H15B           -3.9909693352        7.2304076250       22.3851154110  MEMB      4               0.0000000000
       418         4  POPC      H15C           -5.1044531657        8.4671039578       22.1106247444  MEMB      4               0.0000000000
       419         4  POPC      C11            -2.2534321007        7.4109786124       18.8443902800  MEMB      4               0.0000000000
       420         4  POPC      H11A           -2.6194074082        6.6811488741       18.0909106932  MEMB      4               0.0000000000
       421         4  POPC      H11B           -1.3602488787        6.8946040901       19.2565818601  MEMB      4               0.0000000000
       422         4  POPC      P              -2.2186997726        9.2168399777       16.9216719711  MEMB      4               0.0000000000
       423         4  POPC      O13            -3.6657205032        9.2572035990       16.6484157876  MEMB      4               0.0000000000
       424         4  POPC      O14            -1.3663818921        8.5485013916       15.9115976823  MEMB      4               0.0000000000
       425         4  POPC      O12            -1.9024817736        8.5826953396       18.3077523731  MEMB      4               0.0000000000
       426         4  POPC      O11            -1.7079047346       10.7572854282       17.0275859879  MEMB      4               0.0000000000
       427         4  POPC      C1             -0.4308514176       11.2269247519       17.4699262891  MEMB      4               0.0000000000
       428         4  POPC      HA              0.4218464015       10.6225603740       17.0931357299  MEMB      4               0.0000000000
       429         4  POPC      HB             -0.3896510160       11.2318339383       18.5801512483  MEMB      4               0.0000000000
       430         4  POPC      C2             -0.1981545885       12.6480369480       16.8450227487  MEMB      4               0.0000000000
       431         4  POPC      HS              0.3835997126       13.1234784398       17.6634593406  MEMB      4               0.0000000000
       432         4  POPC      O21            -1.4036980732       13.3808408201       16.5303497972  MEMB      4               0.0000000000
       433         4  POPC      C21            -2.3592307546       13.5444067968       17.5251391092  MEMB      4               0.0000000000
       434         4  POPC      O22            -2.1221053489       13.1412179251       18.6393872831  MEMB      4               0.0000000000
       435         4  POPC      C22            -3.6887547459       13.9310203603       16.8362654523  MEMB      4               0.0000000000
       436         4  POPC      H2R            -3.7725358995       14.9902382877       16.5116740641  MEMB      4               0.0000000000
       437         4  POPC      H2S            -4.4856786202       13.6072726255       17.5394162266  MEMB      4               0.0000000000
       438         4  POPC      C3              0.6858434364       12.5132022345       15.6297500725  MEMB      4               0.0000000000
       439         4  POPC      HX              1.5978775225       11.8866034068       15.7291903063  MEMB      4               0.0000000000
       440         4  POPC      HY              1.1181133232       13.5146940647       15.4188529149  MEMB      4               0.0000000000
       441         4  POPC      O31            -0.1411441695       12.0420691218       14.5285848256  MEMB      4               0.0000000000
       442         4  POPC      C31             0.1899173711       10.9480548081       13.7861938063  MEMB      4               0.0000000000
       443         4  POPC      O32             1.1889048362       10.2573799737       13.9316916398  MEMB      4               0.0000000000
       444         4  POPC      C32            -0.8943497542       10.5608720177       12.8952291650  MEMB      4               0.0000000000
       445         4  POPC      H2X            -0.8631057338       11.1531756779       11.9558033212  MEMB      4               0.0000000000
       446         4  POPC      H2Y            -1.9346210224       10.4735737266       13.2754077194  MEMB      4               0.0000000000
       447         4  POPC      C23            -3.8119463247       13.0317545732       15.5544347772  MEMB      4               0.0000000000
       448         4  POPC      H3R            -3.7129678201       11.9750702720       15.8829813001  MEMB      4               0.0000000000
       449         4  POPC      H3S            -3.0676684074       13.3443453636       14.7911138887  MEMB      4               0.0000000000
       450         4  POPC      C24            -5.1995297572       13.2598669169       14.8653630579  MEMB      4               0.0000000000
       451         4  POPC      H4R            -5.3170888606       14.3605107736       14.7700541431  MEMB      4               0.0000000000
       452         4  POPC      H4S            -6.0059315123       12.8714059811       15.5234931090  MEMB      4               0.0000000000
       453         4  POPC      C25            -5.3627064659       12.6856684887       13.4601014897  MEMB      4               0.0000000000
       454         4  POPC      H5R            -4.5894156274       13.1710678338       12.8270691521  MEMB      4               0.0000000000
       455         4  POPC      H5S            -6.2905273540       13.1307209672       13.0412965896  MEMB      4               0.0000000000
       456         4  POPC      C26            -5.0655779136       11.1072540184       13.4295407742  MEMB      4               0.0000000000
       457         4  POPC      H6R            -5.6462162585       10.6376389231       14.2521229283  MEMB      4               0.0000000000
       458         4  POPC      H6S            -3.9837990154       10.9473366488       13.6257594962  MEMB      4               0.0000000000
       459         4  POPC      C27            -5.4447661945       10.5742008248       12.0291933246  MEMB      4               0.0000000000
       460         4  POPC      H7R            -6.4786920171       10.7696567335       11.6726599030  MEMB      4               0.0000000000
       461         4  POPC      H7S            -5.2592772688        9.4798786704       11.9804722149  MEMB      4               0.0000000000
       462         4  POPC      C28            -4.6067295773       10.9933300533       10.7749577164  MEMB      4               0.0000000000
       463         4  POPC      H8R            -4.7516151085       10.2359249285        9.9751662392  MEMB      4               0.0000000000
       464         4  POPC      H8S            -3.5673011392       10.7344808120       11.0697574750  MEMB      4               0.0000000000
       465         4  POPC      C29            -4.7944716341       12.4067016849       10.2904901995  MEMB      4               0.0000000000
       466         4  POPC      H91            -5.8321765553       12.7639185949       10.3650887138  MEMB      4               0.0000000000
       467         4  POPC      C210           -3.8369408865       13.2987646808        9.9105996464  MEMB      4               0.0000000000
       468         4  POPC      H101           -4.1685802991       14.3308041771        9.7237599410  MEMB      4               0.0000000000
       469         4  POPC      C211           -2.3135662621       13.0620134200        9.9214935032  MEMB      4               0.0000000000
       470         4  POPC      H11R           -2.1239857415       12.2634787318       10.6703076388  MEMB      4               0.0000000000
       471         4  POPC      H11S           -1.7127864452       13.9695075005       10.1447405302  MEMB      4               0.0000000000
       472         4  POPC      C212           -1.9836745360       12.3450586626        8.5597948546  MEMB      4               0.0000000000
       473         4  POPC      H12R           -2.2956851784       12.9158006363        7.6591148640  MEMB      4               0.0000000000
       474         4  POPC      H12S           -2.5045635748       11.3640427762        8.5352253586  MEMB      4               0.0000000000
       475         4  POPC      C213           -0.4569718725       12.3208330879        8.4916636490  MEMB      4               0.0000000000
       476         4  POPC      H13R            0.1226565862       11.5875189811        9.0921657285  MEMB      4               0.0000000000
       477         4  POPC      H13S           -0.2270952351       13.3043944038        8.9543570305  MEMB      4               0.0000000000
       478         4  POPC      C214            0.0361661606       12.0561738670        7.0738988534  MEMB      4               0.0000000000
       479         4  POPC      H14R           -0.2141225582       11.0099862685        6.7961070274  MEMB      4               0.0000000000
       480         4  POPC      H14S            1.1396878711       12.0868310372        6.9489151354  MEMB      4               0.0000000000
       481         4  POPC      C215           -0.3586068565       13.0057671231        5.9509320611  MEMB      4               0.0000000000
       482         4  POPC      H15R           -0.1952700714       14.0640929266        6.2468855727  MEMB      4               0.0000000000
       483         4  POPC      H15S           -1.4339500295       12.8163200811        5.7458278014  MEMB      4               0.0000000000
       484         4  POPC      C216            0.4669290489       12.7353564522        4.6406274367  MEMB      4               0.0000000000
       485         4  POPC      H16R            0.2772779912       11.6918020317        4.3099505075  MEMB      4               0.0000000000
       486         4  POPC      H16S            1.5665910641       12.7999954548        4.7851495420  MEMB      4               0.0000000000
       487         4  POPC      C217            0.0307261578       13.7379312069        3.5055879784  MEMB      4               0.0000000000
       488         4  POPC      H17R            0.8139854722       13.6351179009        2.7243990107  MEMB      4               0.0000000000
       489         4  POPC      H17S            0.0469601802       14.7535654956        3.9556367541  MEMB      4               0.0000000000
       490         4  POPC      C218           -1.2488106031       13.3812333700        2.7769458881  MEMB      4               0.0000000000
       491         4  POPC      H18R           -2.1442440375       13.4148775731        3.4337472818  MEMB      4               0.0000000000
       492         4  POPC      H18S           -1.2829097697       12.4091124849        2.2401600431  MEMB      4               0.0000000000
       493         4  POPC      H18T           -1.3969540833       14.1455574541        1.9843671181  MEMB      4               0.0000000000
       494         4  POPC      C33            -0.6207812606        9.1665031078       12.1653982614  MEMB      4               0.0000000000
       495         4  POPC      H3X            -0.5384731222        8.3732805665       12.9389259409  MEMB      4               0.0000000000
       496         4  POPC      H3Y             0.3550586273        9.2830953408       11.6472637032  MEMB      4               0.0000000000
       497         4  POPC      C34            -1.7497582740        8.7135580929       11.1277942927  MEMB      4               0.0000000000
       498         4  POPC      H4X            -1.7921171359        9.5184414290       10.3631444653  MEMB      4               0.0000000000
       499         4  POPC      H4Y            -2.7479636647        8.7539054616       11.6138793226  MEMB      4               0.0000000000
       500         4  POPC      C35            -1.2919216700        7.4965063251       10.3284609665  MEMB      4               0.0000000000
       501         4  POPC      H5X            -1.4393918061        6.5917480481       10.9561439686  MEMB      4               0.0000000000
       502         4  POPC      H5Y            -0.2276952270        7.6664776563       10.0585478274  MEMB      4               0.0000000000
       503         4  POPC      C36            -2.0770381807        7.2947767749        9.0177300829  MEMB      4               0.0000000000
       504         4  POPC      H6X            -1.6112144471        8.0774999456        8.3815906562  MEMB      4               0.0000000000
       505         4  POPC      H6Y            -3.0998869265        7.6389449678        9.2816422322  MEMB      4               0.0000000000
       506         4  POPC      C37            -2.0819587219        5.9236872515        8.4586048654  MEMB      4               0.0000000000
       507         4  POPC      H7X            -2.8750884893        5.9024304901        7.6809072481  MEMB      4               0.0000000000
       508         4  POPC      H7Y            -2.3838355396        5.2734058823        9.3073245024  MEMB      4               0.0000000000
       509         4  POPC      C38            -0.7430059101        5.4473250596        7.8373076698  MEMB      4               0.0000000000
       510         4  POPC      H8X            -0.6664561471        4.3780807851        7.5454548050  MEMB      4               0.0000000000
       511         4  POPC      H8Y             0.1673536541        5.5141514715        8.4706325446  MEMB      4               0.0000000000
       512         4  POPC      C39            -0.2683760300        6.3235099453        6.6521586306  MEMB      4               0.0000000000
       513         4  POPC      H9X             0.6162597673        5.7348899111        6.3277109871  MEMB      4               0.0000000000
       514         4  POPC      H9Y             0.0338275123        7.3327412746        7.0049281819  MEMB      4               0.0000000000
       515         4  POPC      C310           -1.1982045304        6.3054776411        5.4598897047  MEMB      4               0.0000000000
       516         4  POPC      H10X           -2.1130744563        6.9218055136        5.5920791236  MEMB      4               0.0000000000
       517         4  POPC      H10Y           -1.4845081072        5.2405298619        5.3248418781  MEMB      4               0.0000000000
       518         4  POPC      C311           -0.5007968137        6.8047560844        4.1506347842  MEMB      4               0.0000000000
       519         4  POPC      H11X            0.4607701486        6.2592165881        4.0406491043  MEMB      4               0.0000000000
       520         4  POPC      H11Y           -0.4101541607        7.9084607904        4.2397480617  MEMB      4               0.0000000000
       521         4  POPC      C312           -1.3599683620        6.7350821838        2.8425912582  MEMB      4               0.0000000000
       522         4  POPC      H12X           -1.6867079442        5.6852768819        2.6829942438  MEMB      4               0.0000000000
       523         4  POPC      H12Y           -0.7015642403        6.9080527954        1.9645776604  MEMB      4               0.0000000000
       524         4  POPC      C313           -2.5415007131        7.6829190551        2.6385144940  MEMB      4               0.0000000000
       525         4  POPC      H13X           -2.2012580036        8.7353071168        2.7435629878  MEMB      4               0.0000000000
       526         4  POPC      H13Y           -3.3901498799        7.3661384241        3.2817608392  MEMB      4               0.0000000000
       527         4  POPC      C314           -3.0303121914        7.8017076752        1.1502069783  MEMB      4               0.0000000000
       528         4  POPC      H14X           -3.4457038808        6.8222353018        0.8301994212  MEMB      4               0.0000000000
       529         4  POPC      H14Y           -2.1591516412        8.0907135545        0.5242083411  MEMB      4               0.0000000000
       530         4  POPC      C315           -4.0726193699        8.9294781621        0.9682333137  MEMB      4               0.0000000000
       531         4  POPC      H15X           -5.0122161550        8.7984793924        1.5464355006  MEMB      4               0.0000000000
       532         4  POPC      H15Y           -4.4959463228        8.7477124121       -0.0427456042  MEMB      4               0.0000000000
       533         4  POPC      C316           -3.5161034567       10.3307810952        1.0827042478  MEMB      4               0.0000000000
       534         4  POPC      H16X           -2.5472033279       10.3426603173        0.5391862748  MEMB      4               0.0000000000
       535         4  POPC      H16Y           -3.4793544806       10.8282440120        2.0754285720  MEMB      4               0.0000000000
       536         4  POPC      H16Z           -4.2288589883       10.9056899743        0.4535938470  MEMB      4               0.0000000000
       537         5  POPC      N              -5.3640567906      -11.1547288730       17.9007863107  MEMB      5               0.0000000000
       538         5  POPC      C12            -4.3911079502       -9.9823477322       18.0092458771  MEMB      5               0.0000000000
       539         5  POPC      H12A           -4.7805796030       -9.1543952533       17.4354806042  MEMB      5               0.0000000000
       540         5  POPC      H12B           -3.4727610281      -10.2818631650       17.5262039894  MEMB      5               0.0000000000
       541         5  POPC      C13            -5.0582036459      -12.2666415975       18.7336531701  MEMB      5               0.0000000000
       542         5  POPC      H13A           -4.8782658994      -11.8129665979       19.6970853688  MEMB      5               0.0000000000
       543         5  POPC      H13B           -5.8208265581      -13.0311489809       18.7153613903  MEMB      5               0.0000000000
       544         5  POPC      H13C           -4.1118046154      -12.6972194940       18.4415375050  MEMB      5               0.0000000000
       545         5  POPC      C14            -6.7778804483      -10.7867279095       18.2117217935  MEMB      5               0.0000000000
       546         5  POPC      H14A           -6.7257400647      -10.4325523535       19.2306629513  MEMB      5               0.0000000000
       547         5  POPC      H14B           -7.1834293120      -10.0083887020       17.5823425195  MEMB      5               0.0000000000
       548         5  POPC      H14C           -7.4321650103      -11.6459282780       18.2210071118  MEMB      5               0.0000000000
       549         5  POPC      C15            -5.4100362885      -11.7059095246       16.4269857624  MEMB      5               0.0000000000
       550         5  POPC      H15A           -4.4372464139      -12.0902459431       16.1579777607  MEMB      5               0.0000000000
       551         5  POPC      H15B           -5.8127169662      -10.9538714412       15.7646510694  MEMB      5               0.0000000000
       552         5  POPC      H15C           -6.1634550110      -12.4691421948       16.5544068296  MEMB      5               0.0000000000
       553         5  POPC      C11            -4.0146563372       -9.4612133959       19.4436755131  MEMB      5               0.0000000000
       554         5  POPC      H11A           -3.1541406028       -8.7617054564       19.3764270287  MEMB      5               0.0000000000
       555         5  POPC      H11B           -3.5269832893      -10.2553121214       20.0485749299  MEMB      5               0.0000000000
       556         5  POPC      P              -5.4461137349       -7.3578484998       20.1199922974  MEMB      5               0.0000000000
       557         5  POPC      O13            -4.2975085759       -6.4597452300       20.3413053780  MEMB      5               0.0000000000
       558         5  POPC      O14            -6.6111344567       -7.0732551422       20.9538667592  MEMB      5               0.0000000000
       559         5  POPC      O12            -5.0775818105       -8.8507117801       20.3476489099  MEMB      5               0.0000000000
       560         5  POPC      O11            -5.8035220307       -7.3554010641       18.5111182719  MEMB      5               0.0000000000
       561         5  POPC      C1             -6.8588545806       -6.4288874979       18.0792744701  MEMB      5               0.0000000000
       562         5  POPC      HA             -6.4644727593       -5.4156800981       18.3077361668  MEMB      5               0.0000000000
       563         5  POPC      HB             -7.7834798677       -6.5699217330       18.6788564660  MEMB      5               0.0000000000
       564         5  POPC      C2             -7.2256334100       -6.5014913979       16.5579050377  MEMB      5               0.0000000000
       565         5  POPC      HS             -7.9319857438       -5.6868311143       16.2901070813  MEMB      5               0.0000000000
       566         5  POPC      O21            -7.7556349910       -7.8550207723       16.2331851210  MEMB      5               0.0000000000
       567         5  POPC      C21            -9.0232941039       -7.9904429353       16.0664359383  MEMB      5               0.0000000000
       568         5  POPC      O22            -9.8365008865       -7.0713418703       15.9689751897  MEMB      5               0.0000000000
       569         5  POPC      C22            -9.4042161873       -9.4147727196       15.9659671813  MEMB      5               0.0000000000
       570         5  POPC      H2R           -10.4371368293       -9.5900912242       15.5962931906  MEMB      5               0.0000000000
       571         5  POPC      H2S            -9.2687907348       -9.8587809864       16.9753421090  MEMB      5               0.0000000000
       572         5  POPC      C3             -5.9529005187       -6.3306681041       15.6512343757  MEMB      5               0.0000000000
       573         5  POPC      HX             -5.5643099284       -5.3585357119       16.0230905374  MEMB      5               0.0000000000
       574         5  POPC      HY             -6.1996001209       -6.3050272980       14.5682744329  MEMB      5               0.0000000000
       575         5  POPC      O31            -4.9331035778       -7.3362760319       15.7919725248  MEMB      5               0.0000000000
       576         5  POPC      C31            -3.6835383157       -6.9892787237       15.4888941498  MEMB      5               0.0000000000
       577         5  POPC      O32            -3.2928889967       -5.9003304295       15.1896370293  MEMB      5               0.0000000000
       578         5  POPC      C32            -2.9314814833       -8.3207660151       15.3208391633  MEMB      5               0.0000000000
       579         5  POPC      H2X            -3.2609334531       -9.0594400412       16.0825103935  MEMB      5               0.0000000000
       580         5  POPC      H2Y            -1.8451825690       -8.1090583440       15.4180799188  MEMB      5               0.0000000000
       581         5  POPC      C23            -8.4942749262      -10.1293924541       14.9962509491  MEMB      5               0.0000000000
       582         5  POPC      H3R            -7.4265803969      -10.0183326828       15.2826336325  MEMB      5               0.0000000000
       583         5  POPC      H3S            -8.6221804039       -9.5466703057       14.0590232312  MEMB      5               0.0000000000
       584         5  POPC      C24            -8.8156469853      -11.5954534591       14.7917411776  MEMB      5               0.0000000000
       585         5  POPC      H4R            -9.9039793237      -11.6516030103       14.5756363243  MEMB      5               0.0000000000
       586         5  POPC      H4S            -8.6808577680      -12.2178633372       15.7021031119  MEMB      5               0.0000000000
       587         5  POPC      C25            -7.9191600156      -12.2555716420       13.7119583371  MEMB      5               0.0000000000
       588         5  POPC      H5R            -8.4455085964      -13.2320178090       13.6500624492  MEMB      5               0.0000000000
       589         5  POPC      H5S            -6.8857277037      -12.0884136635       14.0839754016  MEMB      5               0.0000000000
       590         5  POPC      C26            -8.0191527283      -11.4256372439       12.3304481450  MEMB      5               0.0000000000
       591         5  POPC      H6R            -7.3502819133      -11.8664427642       11.5606283166  MEMB      5               0.0000000000
       592         5  POPC      H6S            -7.6460970707      -10.3828723881       12.4187215689  MEMB      5               0.0000000000
       593         5  POPC      C27            -9.3941870182      -11.4154670902       11.7418912713  MEMB      5               0.0000000000
       594         5  POPC      H7R           -10.2256303637      -11.1350858272       12.4233668830  MEMB      5               0.0000000000
       595         5  POPC      H7S            -9.5098934608      -12.4466601667       11.3449357072  MEMB      5               0.0000000000
       596         5  POPC      C28            -9.3984935451      -10.4248139527       10.4915693162  MEMB      5               0.0000000000
       597         5  POPC      H8R           -10.2671580220      -10.8541863996        9.9480793230  MEMB      5               0.0000000000
       598         5  POPC      H8S            -8.5566599806      -10.4486368722        9.7669531244  MEMB      5               0.0000000000
       599         5  POPC      C29            -9.5873877784       -9.0269085308       10.9199041864  MEMB      5               0.0000000000
       600         5  POPC      H91           -10.3553725600       -8.8556186358       11.6885780853  MEMB      5               0.0000000000
       601         5  POPC      C210           -8.9454774312       -7.9745233374       10.6283072640  MEMB      5               0.0000000000
       602         5  POPC      H101           -9.3144065364       -7.0043401730       10.9924998270  MEMB      5               0.0000000000
       603         5  POPC      C211           -7.7585889489       -7.8569241708        9.7604674455  MEMB      5               0.0000000000
       604         5  POPC      H11R           -7.3123252920       -8.8526438399        9.5513932905  MEMB      5               0.0000000000
       605         5  POPC      H11S           -7.0307145974       -7.3069640438       10.3945523787  MEMB      5               0.0000000000
       606         5  POPC      C212           -8.0411036524       -6.9722974090        8.5307994663  MEMB      5               0.0000000000
       607         5  POPC      H12R           -8.4427770358       -5.9963831887        8.8780334195  MEMB      5               0.0000000000
       608         5  POPC      H12S           -8.8193192152       -7.5660669223        8.0053096943  MEMB      5               0.0000000000
       609         5  POPC      C213           -6.7347915795       -6.6470331168        7.7626167684  MEMB      5               0.0000000000
       610         5  POPC      H13R           -6.3430413196       -7.6437169558        7.4668556787  MEMB      5               0.0000000000
       611         5  POPC      H13S           -5.8692413556       -6.3491348150        8.3922200154  MEMB      5               0.0000000000
       612         5  POPC      C214           -6.9354073097       -5.7300373674        6.5376899466  MEMB      5               0.0000000000
       613         5  POPC      H14R           -6.9911284741       -4.7137708242        6.9831315885  MEMB      5               0.0000000000
       614         5  POPC      H14S           -7.8716340043       -6.1286200711        6.0916705481  MEMB      5               0.0000000000
       615         5  POPC      C215           -5.8214919272       -5.6911313261        5.5511122163  MEMB      5               0.0000000000
       616         5  POPC      H15R           -4.8525209964       -5.6265856973        6.0907881562  MEMB      5               0.0000000000
       617         5  POPC      H15S           -5.8906572031       -4.8091668376        4.8790442416  MEMB      5               0.0000000000
       618         5  POPC      C216           -5.7541579562       -6.9725262735        4.6738273351  MEMB      5               0.0000000000
       619         5  POPC      H16R           -5.9155579383       -7.8285663006        5.3633685792  MEMB      5               0.0000000000
       620         5  POPC      H16S           -4.7189016711       -6.9696882849        4.2706430866  MEMB      5               0.0000000000
       621         5  POPC      C217           -6.6420556387       -6.8853594008        3.3861216515  MEMB      5               0.0000000000
       622         5  POPC      H17R           -7.6146360532       -6.4161556535        3.6473796654  MEMB      5               0.0000000000
       623         5  POPC      H17S           -6.9998905771       -7.9182738089        3.1877192779  MEMB      5               0.0000000000
       624         5  POPC      C218           -6.0467031399       -6.2928785946        2.1903445812  MEMB      5               0.0000000000
       625         5  POPC      H18R           -5.7454661357       -5.2364922037        2.3565536769  MEMB      5               0.0000000000
       626         5  POPC      H18S           -6.7538873148       -6.3885553487        1.3388425008  MEMB      5               0.0000000000
       627         5  POPC      H18T           -5.1563474047       -6.7727799844        1.7306901261  MEMB      5               0.0000000000
       628         5  POPC      C33            -3.3107406311       -8.8722572731       13.8904302829  MEMB      5               0.0000000000
       629         5  POPC      H3X            -4.3562569316       -9.2464081962       13.9254688431  MEMB      5               0.0000000000
       630         5  POPC      H3Y            -2.6986984475       -9.7487308227       13.5879081782  MEMB      5               0.0000000000
       631         5  POPC      C34            -3.1741963806       -7.9245237342       12.7146220464  MEMB      5               0.0000000000
       632         5  POPC      H4X            -2.2186419826       -7.3619578551       12.6456558521  MEMB      5               0.0000000000
       633         5  POPC      H4Y            -3.8429717029       -7.0388083639       12.7653062575  MEMB      5               0.0000000000
       634         5  POPC      C35            -3.5053935508       -8.5994094933       11.3298191387  MEMB      5               0.0000000000
       635         5  POPC      H5X            -4.5226650282       -9.0450955636       11.3588655432  MEMB      5               0.0000000000
       636         5  POPC      H5Y            -2.7049858338       -9.3559753230       11.1839553311  MEMB      5               0.0000000000
       637         5  POPC      C36            -3.4932805460       -7.6164123298       10.1058469168  MEMB      5               0.0000000000
       638         5  POPC      H6X            -2.4390081234       -7.2931530770        9.9704437204  MEMB      5               0.0000000000
       639         5  POPC      H6Y            -4.1281187615       -6.7304228367       10.3210780327  MEMB      5               0.0000000000
       640         5  POPC      C37            -3.8031682132       -8.2183830907        8.7806226419  MEMB      5               0.0000000000
       641         5  POPC      H7X            -3.5696342287       -7.4843444418        7.9800162229  MEMB      5               0.0000000000
       642         5  POPC      H7Y            -4.9105735758       -8.3064095531        8.7655967008  MEMB      5               0.0000000000
       643         5  POPC      C38            -3.2355379388       -9.5661230288        8.3911376255  MEMB      5               0.0000000000
       644         5  POPC      H8X            -3.6168866294      -10.3839115142        9.0393017292  MEMB      5               0.0000000000
       645         5  POPC      H8Y            -2.1381721822       -9.4311331748        8.5001664794  MEMB      5               0.0000000000
       646         5  POPC      C39            -3.5510863196      -10.0262222096        6.9507316404  MEMB      5               0.0000000000
       647         5  POPC      H9X            -4.6584980841      -10.0937673636        6.8924399394  MEMB      5               0.0000000000
       648         5  POPC      H9Y            -3.1382578094      -11.0569553321        6.9122238385  MEMB      5               0.0000000000
       649         5  POPC      C310           -2.9352349452       -9.2158489500        5.8170173771  MEMB      5               0.0000000000
       650         5  POPC      H10X           -1.8389228034       -9.3645383565        5.7154702782  MEMB      5               0.0000000000
       651         5  POPC      H10Y           -3.1398089216       -8.1238611208        5.8112731724  MEMB      5               0.0000000000
       652         5  POPC      C311           -3.4443994487       -9.6417863592        4.4287925702  MEMB      5               0.0000000000
       653         5  POPC      H11X           -3.2240225337       -8.8550773776        3.6759026412  MEMB      5               0.0000000000
       654         5  POPC      H11Y           -4.5191626808       -9.7980332884        4.6628703200  MEMB      5               0.0000000000
       655         5  POPC      C312           -2.5748414391      -10.7944722078        3.7995782376  MEMB      5               0.0000000000
       656         5  POPC      H12X           -2.3920274902      -11.5576265143        4.5860229713  MEMB      5               0.0000000000
       657         5  POPC      H12Y           -1.6188324538      -10.3209986692        3.4894315619  MEMB      5               0.0000000000
       658         5  POPC      C313           -3.2579492402      -11.5947500297        2.7466904413  MEMB      5               0.0000000000
       659         5  POPC      H13X           -4.2336570002      -11.9555197745        3.1367670792  MEMB      5               0.0000000000
       660         5  POPC      H13Y           -2.5219760273      -12.3640762510        2.4291988739  MEMB      5               0.0000000000
       661         5  POPC      C314           -3.7137628659      -10.8047638910        1.5054647405  MEMB      5               0.0000000000
       662         5  POPC      H14X           -2.8223812865      -10.1777847279        1.2894635217  MEMB      5               0.0000000000
       663         5  POPC      H14Y           -4.5703396365      -10.1518914379        1.7781473122  MEMB      5               0.0000000000
       664         5  POPC      C315           -4.2490422520      -11.7535226473        0.4311190358  MEMB      5               0.0000000000
       665         5  POPC      H15X           -5.1431553151      -12.3583393122        0.6939484641  MEMB      5               0.0000000000
       666         5  POPC      H15Y           -3.4538769700      -12.4684733394        0.1296598566  MEMB      5               0.0000000000
       667         5  POPC      C316           -4.6682838494      -10.9371926151       -0.8599058310  MEMB      5               0.0000000000
       668         5  POPC      H16X           -5.6821591139      -10.5710086836       -0.5910410382  MEMB      5               0.0000000000
       669         5  POPC      H16Y           -4.9062805036      -11.6129015034       -1.7090789564  MEMB      5               0.0000000000
       670         5  POPC      H16Z           -3.9667239983      -10.0799179943       -0.9448441584  MEMB      5               0.0000000000
       671         6  POPC      N              11.0428894850       -1.3988924617       19.0484364315  MEMB      6               0.0000000000
       672         6  POPC      C12             9.9430728244       -2.5041447105       18.7025154503  MEMB      6               0.0000000000
       673         6  POPC      H12A            9.9437976001       -2.9583478605       17.7226689789  MEMB      6               0.0000000000
       674         6  POPC      H12B            8.9833119419       -2.0311294752       18.5558332347  MEMB      6               0.0000000000
       675         6  POPC      C13            11.0066539390       -0.3015391083       18.0624519238  MEMB      6               0.0000000000
       676         6  POPC      H13A           10.0823945500        0.2507279392       18.1469850629  MEMB      6               0.0000000000
       677         6  POPC      H13B           11.9243519691        0.2678527691       18.0576816919  MEMB      6               0.0000000000
       678         6  POPC      H13C           10.9239697334       -0.7891239383       17.1023351194  MEMB      6               0.0000000000
       679         6  POPC      C14            10.8734168894       -0.7166757170       20.3579758695  MEMB      6               0.0000000000
       680         6  POPC      H14A            9.9941275109       -0.0895816016       20.3561282132  MEMB      6               0.0000000000
       681         6  POPC      H14B           10.7346642882       -1.3814688280       21.1977362561  MEMB      6               0.0000000000
       682         6  POPC      H14C           11.7310831153       -0.0829306939       20.5287864317  MEMB      6               0.0000000000
       683         6  POPC      C15            12.3306938661       -2.1243057102       19.1139110067  MEMB      6               0.0000000000
       684         6  POPC      H15A           12.4693884226       -2.7450085795       18.2410468637  MEMB      6               0.0000000000
       685         6  POPC      H15B           12.4813675177       -2.7308879899       19.9946808538  MEMB      6               0.0000000000
       686         6  POPC      H15C           13.0431855839       -1.3153010712       19.1792306737  MEMB      6               0.0000000000
       687         6  POPC      C11             9.6372626008       -3.7268368285       19.6912061629  MEMB      6               0.0000000000
       688         6  POPC      H11A            8.6982071335       -4.1831726539       19.3113990617  MEMB      6               0.0000000000
       689         6  POPC      H11B            9.4614325769       -3.3783465628       20.7313788760  MEMB      6               0.0000000000
       690         6  POPC      P              10.7643373331       -5.8800921019       18.8019568739  MEMB      6               0.0000000000
       691         6  POPC      O13            10.2404430722       -5.5515638330       17.4779773070  MEMB      6               0.0000000000
       692         6  POPC      O14            10.0992284231       -7.0307507359       19.4383913711  MEMB      6               0.0000000000
       693         6  POPC      O12            10.7314788370       -4.5630520087       19.7337745307  MEMB      6               0.0000000000
       694         6  POPC      O11            12.3460039296       -6.1775291932       18.5714030362  MEMB      6               0.0000000000
       695         6  POPC      C1             13.2757080028       -6.6492568059       19.5468685191  MEMB      6               0.0000000000
       696         6  POPC      HA             12.8785118581       -7.4235095752       20.2375845412  MEMB      6               0.0000000000
       697         6  POPC      HB             13.5108898963       -5.7328705187       20.1293174162  MEMB      6               0.0000000000
       698         6  POPC      C2             14.5485296674       -7.1967376711       18.8379139484  MEMB      6               0.0000000000
       699         6  POPC      HS             15.3260214189       -7.0224397533       19.6121540361  MEMB      6               0.0000000000
       700         6  POPC      O21            14.8240501973       -6.4419200562       17.6833301600  MEMB      6               0.0000000000
       701         6  POPC      C21            14.8618284651       -5.1719617117       17.7574291391  MEMB      6               0.0000000000
       702         6  POPC      O22            15.0290015327       -4.4789099960       18.7879881262  MEMB      6               0.0000000000
       703         6  POPC      C22            14.7759925811       -4.5728421020       16.3874242841  MEMB      6               0.0000000000
       704         6  POPC      H2R            13.8494608263       -4.9448748278       15.9001343052  MEMB      6               0.0000000000
       705         6  POPC      H2S            15.6806584159       -4.7948133051       15.7819246528  MEMB      6               0.0000000000
       706         6  POPC      C3             14.5152429828       -8.6685066906       18.3655287213  MEMB      6               0.0000000000
       707         6  POPC      HX             14.6698292176       -9.2341184041       19.3091955433  MEMB      6               0.0000000000
       708         6  POPC      HY             15.4452823199       -8.8508536031       17.7857901548  MEMB      6               0.0000000000
       709         6  POPC      O31            13.2009397792       -8.8484317565       17.8126151165  MEMB      6               0.0000000000
       710         6  POPC      C31            13.2183194884       -8.6855574011       16.4989601115  MEMB      6               0.0000000000
       711         6  POPC      O32            14.1558746397       -8.5390451020       15.7784786006  MEMB      6               0.0000000000
       712         6  POPC      C32            11.7658844203       -8.7323793586       15.9708930293  MEMB      6               0.0000000000
       713         6  POPC      H2X            11.1296393683       -8.6409379557       16.8770671304  MEMB      6               0.0000000000
       714         6  POPC      H2Y            11.6209039239       -9.7597553741       15.5736521619  MEMB      6               0.0000000000
       715         6  POPC      C23            14.8771207727       -2.9557365888       16.3121036779  MEMB      6               0.0000000000
       716         6  POPC      H3R            15.7821022499       -2.6960470673       16.9019261544  MEMB      6               0.0000000000
       717         6  POPC      H3S            13.9427764726       -2.5698248370       16.7729655513  MEMB      6               0.0000000000
       718         6  POPC      C24            15.1050522229       -2.4252733636       14.9949204780  MEMB      6               0.0000000000
       719         6  POPC      H4R            16.0401484313       -2.9115338954       14.6435425574  MEMB      6               0.0000000000
       720         6  POPC      H4S            15.1286835592       -1.3152894877       14.9537060438  MEMB      6               0.0000000000
       721         6  POPC      C25            13.9400489245       -2.5928973730       14.0215687141  MEMB      6               0.0000000000
       722         6  POPC      H5R            12.9894569276       -2.0870764912       14.2951395114  MEMB      6               0.0000000000
       723         6  POPC      H5S            13.6476170893       -3.6642041370       13.9883052009  MEMB      6               0.0000000000
       724         6  POPC      C26            14.1452729970       -2.0459892285       12.6090881431  MEMB      6               0.0000000000
       725         6  POPC      H6R            14.1671088911       -0.9358164659       12.5722030189  MEMB      6               0.0000000000
       726         6  POPC      H6S            13.2196058822       -2.3684462590       12.0861322859  MEMB      6               0.0000000000
       727         6  POPC      C27            15.3542829062       -2.4959100086       11.8452950338  MEMB      6               0.0000000000
       728         6  POPC      H7R            16.2359760122       -2.0853311949       12.3822896230  MEMB      6               0.0000000000
       729         6  POPC      H7S            15.1650146475       -1.9842988986       10.8774349191  MEMB      6               0.0000000000
       730         6  POPC      C28            15.5443404807       -4.0116561951       11.6547624651  MEMB      6               0.0000000000
       731         6  POPC      H8R            14.5508628995       -4.4486972609       11.4174474677  MEMB      6               0.0000000000
       732         6  POPC      H8S            15.8006256817       -4.5801328242       12.5742585906  MEMB      6               0.0000000000
       733         6  POPC      C29            16.4436856715       -4.3292358216       10.4966222957  MEMB      6               0.0000000000
       734         6  POPC      H91            17.3721755926       -3.7394909994       10.5069880835  MEMB      6               0.0000000000
       735         6  POPC      C210           16.1691341299       -5.0296691928        9.4023460213  MEMB      6               0.0000000000
       736         6  POPC      H101           16.9712352033       -4.9214787015        8.6574105763  MEMB      6               0.0000000000
       737         6  POPC      C211           14.9113911926       -5.7451416680        9.0217600759  MEMB      6               0.0000000000
       738         6  POPC      H11R           14.2111433149       -5.8624042921        9.8762906458  MEMB      6               0.0000000000
       739         6  POPC      H11S           15.0645460474       -6.7965189057        8.6969975555  MEMB      6               0.0000000000
       740         6  POPC      C212           14.1069458646       -5.0019958642        7.9570128538  MEMB      6               0.0000000000
       741         6  POPC      H12R           13.6491640716       -4.0253328323        8.2232568987  MEMB      6               0.0000000000
       742         6  POPC      H12S           13.1345367517       -5.5204607901        7.8158190520  MEMB      6               0.0000000000
       743         6  POPC      C213           14.8608726772       -4.9306936389        6.5930879589  MEMB      6               0.0000000000
       744         6  POPC      H13R           15.6031804182       -5.7267371254        6.3703439798  MEMB      6               0.0000000000
       745         6  POPC      H13S           15.5564800029       -4.0692692957        6.6847372329  MEMB      6               0.0000000000
       746         6  POPC      C214           13.8636476893       -4.7038644821        5.4577134415  MEMB      6               0.0000000000
       747         6  POPC      H14R           12.9716166670       -5.3103454686        5.7237632575  MEMB      6               0.0000000000
       748         6  POPC      H14S           14.1697681138       -5.0547625768        4.4490106575  MEMB      6               0.0000000000
       749         6  POPC      C215           13.4746510964       -3.1638848732        5.3320545170  MEMB      6               0.0000000000
       750         6  POPC      H15R           14.2658680427       -2.5177529147        4.8952354736  MEMB      6               0.0000000000
       751         6  POPC      H15S           13.3585162502       -2.8452732236        6.3900336260  MEMB      6               0.0000000000
       752         6  POPC      C216           12.2543321566       -2.9976040342        4.4556834745  MEMB      6               0.0000000000
       753         6  POPC      H16R           11.8775983045       -1.9528126455        4.4840316744  MEMB      6               0.0000000000
       754         6  POPC      H16S           11.5098775093       -3.7725283832        4.7378193865  MEMB      6               0.0000000000
       755         6  POPC      C217           12.7150756367       -3.2754116463        2.9645644466  MEMB      6               0.0000000000
       756         6  POPC      H17R           11.8952444636       -3.9101729285        2.5654717513  MEMB      6               0.0000000000
       757         6  POPC      H17S           13.5578047659       -3.9822591154        2.8080543659  MEMB      6               0.0000000000
       758         6  POPC      C218           12.8323120119       -2.0299737200        2.0311929070  MEMB      6               0.0000000000
       759         6  POPC      H18R           13.4095491341       -1.2093428910        2.5083550571  MEMB      6               0.0000000000
       760         6  POPC      H18S           11.8505444110       -1.6478874761        1.6783997713  MEMB      6               0.0000000000
       761         6  POPC      H18T           13.3652829353       -2.2754974265        1.0878057405  MEMB      6               0.0000000000
       762         6  POPC      C33            11.3545693882       -7.6624558512       14.9886246337  MEMB      6               0.0000000000
       763         6  POPC      H3X            11.5728095243       -6.7072004933       15.5122459400  MEMB      6               0.0000000000
       764         6  POPC      H3Y            10.2492638718       -7.6170226645       14.8858797827  MEMB      6               0.0000000000
       765         6  POPC      C34            11.7694367152       -7.9313334747       13.5481430841  MEMB      6               0.0000000000
       766         6  POPC      H4X            11.4846509202       -8.9381284130       13.1745364879  MEMB      6               0.0000000000
       767         6  POPC      H4Y            12.8683153508       -7.8479233642       13.4073264766  MEMB      6               0.0000000000
       768         6  POPC      C35            11.1320609364       -6.8834349297       12.6669621161  MEMB      6               0.0000000000
       769         6  POPC      H5X            11.7174527678       -5.9524116279       12.8245466527  MEMB      6               0.0000000000
       770         6  POPC      H5Y            10.1462727180       -6.6170175773       13.1046426193  MEMB      6               0.0000000000
       771         6  POPC      C36            10.9371204493       -7.2930956864       11.2047319600  MEMB      6               0.0000000000
       772         6  POPC      H6X            10.3240791658       -8.2115004540       11.0821180257  MEMB      6               0.0000000000
       773         6  POPC      H6Y            11.8933970007       -7.5831559901       10.7192204896  MEMB      6               0.0000000000
       774         6  POPC      C37            10.2017020016       -6.2315033073       10.3793506687  MEMB      6               0.0000000000
       775         6  POPC      H7X            10.9150199163       -5.4761263552        9.9857723521  MEMB      6               0.0000000000
       776         6  POPC      H7Y             9.4587049257       -5.6662777624       10.9816772092  MEMB      6               0.0000000000
       777         6  POPC      C38             9.5227079271       -6.8269608648        9.1212236981  MEMB      6               0.0000000000
       778         6  POPC      H8X             8.7761354870       -7.4929224531        9.6043856627  MEMB      6               0.0000000000
       779         6  POPC      H8Y            10.2650088964       -7.3859345104        8.5122420919  MEMB      6               0.0000000000
       780         6  POPC      C39             8.6499021872       -5.7935029444        8.3245782969  MEMB      6               0.0000000000
       781         6  POPC      H9X             9.3665237563       -5.1814423804        7.7362283001  MEMB      6               0.0000000000
       782         6  POPC      H9Y             8.1449898335       -5.1135438035        9.0436336893  MEMB      6               0.0000000000
       783         6  POPC      C310            7.5636234928       -6.4512555506        7.4618439105  MEMB      6               0.0000000000
       784         6  POPC      H10X            6.8336216775       -5.6329047727        7.2837430799  MEMB      6               0.0000000000
       785         6  POPC      H10Y            6.8926031936       -7.1579761729        7.9953224592  MEMB      6               0.0000000000
       786         6  POPC      C311            8.0513847199       -6.9795034889        6.1129970282  MEMB      6               0.0000000000
       787         6  POPC      H11X            7.1963714991       -7.5424090919        5.6812444183  MEMB      6               0.0000000000
       788         6  POPC      H11Y            8.8977555094       -7.6777566594        6.2874100208  MEMB      6               0.0000000000
       789         6  POPC      C312            8.1695723770       -5.8369195917        5.1001613194  MEMB      6               0.0000000000
       790         6  POPC      H12X            8.7094701011       -4.9473027860        5.4892807525  MEMB      6               0.0000000000
       791         6  POPC      H12Y            7.1018811817       -5.5968821528        4.9084901342  MEMB      6               0.0000000000
       792         6  POPC      C313            8.8427233323       -6.3133869646        3.7832304558  MEMB      6               0.0000000000
       793         6  POPC      H13X            8.2739074575       -7.1178931229        3.2698696046  MEMB      6               0.0000000000
       794         6  POPC      H13Y            9.8514348822       -6.6985631192        4.0448812456  MEMB      6               0.0000000000
       795         6  POPC      C314            8.9210158162       -5.2194365016        2.7866025755  MEMB      6               0.0000000000
       796         6  POPC      H14X            9.3984608688       -4.2874183861        3.1576945166  MEMB      6               0.0000000000
       797         6  POPC      H14Y            7.9214767641       -4.8687469594        2.4515513736  MEMB      6               0.0000000000
       798         6  POPC      C315            9.6020645011       -5.5812600882        1.4762150451  MEMB      6               0.0000000000
       799         6  POPC      H15X            8.9797998223       -6.4593238881        1.2003316342  MEMB      6               0.0000000000
       800         6  POPC      H15Y           10.6000183967       -5.9797724384        1.7583442659  MEMB      6               0.0000000000
       801         6  POPC      C316            9.7764624634       -4.5039149659        0.3885668099  MEMB      6               0.0000000000
       802         6  POPC      H16X           10.4124983310       -3.7568448139        0.9097822707  MEMB      6               0.0000000000
       803         6  POPC      H16Y            8.8399722855       -3.9932006241        0.0779574934  MEMB      6               0.0000000000
       804         6  POPC      H16Z           10.2967194420       -4.8456106896       -0.5317034790  MEMB      6               0.0000000000
       805         7  POPC      N             -10.2984036922        4.4720110702       20.8960426445  MEMB      7               0.0000000000
       806         7  POPC      C12            -9.9623408443        5.8206624304       20.2154837166  MEMB      7               0.0000000000
       807         7  POPC      H12A           -9.2845315010        6.3551821988       20.8645315669  MEMB      7               0.0000000000
       808         7  POPC      H12B          -10.8341278344        6.4123303449       19.9781724349  MEMB      7               0.0000000000
       809         7  POPC      C13           -10.8898601148        3.5297926157       19.8346928838  MEMB      7               0.0000000000
       810         7  POPC      H13A          -10.7849213283        2.4962643653       20.1300013307  MEMB      7               0.0000000000
       811         7  POPC      H13B          -11.9593855860        3.6544536758       19.9182100200  MEMB      7               0.0000000000
       812         7  POPC      H13C          -10.4509144192        3.7303200923       18.8685068690  MEMB      7               0.0000000000
       813         7  POPC      C14            -9.0597078983        3.7660827224       21.4945621637  MEMB      7               0.0000000000
       814         7  POPC      H14A           -8.4021599906        3.4223349892       20.7097893845  MEMB      7               0.0000000000
       815         7  POPC      H14B           -8.5948936357        4.4485699554       22.1906649282  MEMB      7               0.0000000000
       816         7  POPC      H14C           -9.4004287893        2.8990685733       22.0410012562  MEMB      7               0.0000000000
       817         7  POPC      C15           -11.3383120581        4.7103102172       21.9734538200  MEMB      7               0.0000000000
       818         7  POPC      H15A          -10.9465809155        5.4077081650       22.6991142101  MEMB      7               0.0000000000
       819         7  POPC      H15B          -11.5951150986        3.7770553123       22.4525025354  MEMB      7               0.0000000000
       820         7  POPC      H15C          -12.2726402178        5.0004154368       21.5159937402  MEMB      7               0.0000000000
       821         7  POPC      C11            -9.1549110998        5.8156175588       18.9168920687  MEMB      7               0.0000000000
       822         7  POPC      H11A           -8.3637417586        5.0382442295       18.9806316081  MEMB      7               0.0000000000
       823         7  POPC      H11B           -8.6578031762        6.8040538448       18.8159056590  MEMB      7               0.0000000000
       824         7  POPC      P             -10.8171047055        6.6818146112       17.1589438595  MEMB      7               0.0000000000
       825         7  POPC      O13           -10.0230636136        7.9368837513       17.0905726994  MEMB      7               0.0000000000
       826         7  POPC      O14           -12.1047951708        6.8109658236       17.8873165718  MEMB      7               0.0000000000
       827         7  POPC      O12            -9.9392916975        5.5629514896       17.7673046378  MEMB      7               0.0000000000
       828         7  POPC      O11           -11.0931194053        6.0322403571       15.7647349356  MEMB      7               0.0000000000
       829         7  POPC      C1             -9.9954359248        5.8704558788       14.8796105586  MEMB      7               0.0000000000
       830         7  POPC      HA            -10.1970467951        5.0464730292       14.1621660559  MEMB      7               0.0000000000
       831         7  POPC      HB             -9.0972543751        5.7324347713       15.5187826411  MEMB      7               0.0000000000
       832         7  POPC      C2             -9.9027937381        7.1434759217       13.9679689323  MEMB      7               0.0000000000
       833         7  POPC      HS             -9.5745367998        7.9823293153       14.6182714960  MEMB      7               0.0000000000
       834         7  POPC      O21           -11.1788937160        7.3835717893       13.3260727752  MEMB      7               0.0000000000
       835         7  POPC      C21           -11.2348826662        8.6894900325       12.9101575396  MEMB      7               0.0000000000
       836         7  POPC      O22           -10.3659088865        9.5257836064       13.1940284018  MEMB      7               0.0000000000
       837         7  POPC      C22           -12.5124603438        8.9266673362       12.1188744004  MEMB      7               0.0000000000
       838         7  POPC      H2R           -12.5600927447        9.8907336684       11.5687579446  MEMB      7               0.0000000000
       839         7  POPC      H2S           -13.3393338536        9.0477178061       12.8509591348  MEMB      7               0.0000000000
       840         7  POPC      C3             -8.7801126393        6.8611438763       12.8367512550  MEMB      7               0.0000000000
       841         7  POPC      HX             -7.7850819015        6.9147536205       13.3280361580  MEMB      7               0.0000000000
       842         7  POPC      HY             -8.7739182369        7.6834476083       12.0896908353  MEMB      7               0.0000000000
       843         7  POPC      O31            -9.0367871858        5.6434774824       12.2548633869  MEMB      7               0.0000000000
       844         7  POPC      C31            -8.0963076155        4.9509484665       11.5289397075  MEMB      7               0.0000000000
       845         7  POPC      O32            -6.9479360580        5.2969951660       11.3861917788  MEMB      7               0.0000000000
       846         7  POPC      C32            -8.7493111032        3.6726148595       10.9600188231  MEMB      7               0.0000000000
       847         7  POPC      H2X            -9.7651060361        3.9242392867       10.5869683165  MEMB      7               0.0000000000
       848         7  POPC      H2Y            -8.6858608728        2.7885287724       11.6298597475  MEMB      7               0.0000000000
       849         7  POPC      C23           -13.0855942461        7.7939638676       11.3625606551  MEMB      7               0.0000000000
       850         7  POPC      H3R           -14.1145201563        8.1245589833       11.1049969093  MEMB      7               0.0000000000
       851         7  POPC      H3S           -13.0583802408        6.8344739345       11.9219881083  MEMB      7               0.0000000000
       852         7  POPC      C24           -12.5650835552        7.4707482817        9.9344615549  MEMB      7               0.0000000000
       853         7  POPC      H4R           -13.0443072649        8.2418647821        9.2941141494  MEMB      7               0.0000000000
       854         7  POPC      H4S           -12.8356239465        6.4696306836        9.5358486199  MEMB      7               0.0000000000
       855         7  POPC      C25           -11.0501148172        7.8030064973        9.6940710144  MEMB      7               0.0000000000
       856         7  POPC      H5R           -10.5042806906        7.1424899452       10.4012513818  MEMB      7               0.0000000000
       857         7  POPC      H5S           -10.9285561279        8.8606483546       10.0117786790  MEMB      7               0.0000000000
       858         7  POPC      C26           -10.5880754805        7.5836356042        8.2939064499  MEMB      7               0.0000000000
       859         7  POPC      H6R           -11.2108768272        8.1777066436        7.5913977975  MEMB      7               0.0000000000
       860         7  POPC      H6S           -10.7868801758        6.5248480302        8.0223063847  MEMB      7               0.0000000000
       861         7  POPC      C27            -9.1816987019        8.1311462808        8.0095221001  MEMB      7               0.0000000000
       862         7  POPC      H7R            -9.2350852178        9.2131971803        8.2557674125  MEMB      7               0.0000000000
       863         7  POPC      H7S            -9.0467063898        7.9064335339        6.9298917149  MEMB      7               0.0000000000
       864         7  POPC      C28            -8.1214534823        7.4690017362        8.9157717212  MEMB      7               0.0000000000
       865         7  POPC      H8R            -8.2997701817        6.3771348042        9.0175114091  MEMB      7               0.0000000000
       866         7  POPC      H8S            -8.0867481575        7.8704617956        9.9511209625  MEMB      7               0.0000000000
       867         7  POPC      C29            -6.8105683291        7.7420940193        8.2590147985  MEMB      7               0.0000000000
       868         7  POPC      H91            -6.4211062860        8.7176128672        8.5856387943  MEMB      7               0.0000000000
       869         7  POPC      C210           -6.2050058599        7.0030538544        7.3357148578  MEMB      7               0.0000000000
       870         7  POPC      H101           -5.1968562116        7.2739397548        6.9889367094  MEMB      7               0.0000000000
       871         7  POPC      C211           -6.7723243043        5.6511628355        6.8004239104  MEMB      7               0.0000000000
       872         7  POPC      H11R           -7.8280164869        5.4953759394        7.1095609238  MEMB      7               0.0000000000
       873         7  POPC      H11S           -6.1693656388        4.8546483908        7.2865584369  MEMB      7               0.0000000000
       874         7  POPC      C212           -6.5459420483        5.5307114082        5.3021635870  MEMB      7               0.0000000000
       875         7  POPC      H12R           -5.4710554812        5.4779501612        5.0261999366  MEMB      7               0.0000000000
       876         7  POPC      H12S           -6.9521758161        6.4582743442        4.8450833389  MEMB      7               0.0000000000
       877         7  POPC      C213           -7.2627202553        4.2607455562        4.7509302289  MEMB      7               0.0000000000
       878         7  POPC      H13R           -8.3610830207        4.3286297389        4.9036130232  MEMB      7               0.0000000000
       879         7  POPC      H13S           -6.8877309978        3.3337849186        5.2351281084  MEMB      7               0.0000000000
       880         7  POPC      C214           -7.0763898284        4.1127636947        3.1715939612  MEMB      7               0.0000000000
       881         7  POPC      H14R           -7.6207671997        3.1729764708        2.9375552629  MEMB      7               0.0000000000
       882         7  POPC      H14S           -5.9937354861        3.9206085844        3.0126687873  MEMB      7               0.0000000000
       883         7  POPC      C215           -7.5687241189        5.3401370757        2.3721742055  MEMB      7               0.0000000000
       884         7  POPC      H15R           -7.0885989808        6.2822686965        2.7130390847  MEMB      7               0.0000000000
       885         7  POPC      H15S           -8.6606621888        5.4831006962        2.5189850183  MEMB      7               0.0000000000
       886         7  POPC      C216           -7.2956966355        5.1029183572        0.9211071774  MEMB      7               0.0000000000
       887         7  POPC      H16R           -6.2023428151        5.2480252061        0.7875328426  MEMB      7               0.0000000000
       888         7  POPC      H16S           -7.8504027823        5.8703028720        0.3399503221  MEMB      7               0.0000000000
       889         7  POPC      C217           -7.6957626193        3.7045072390        0.3995587127  MEMB      7               0.0000000000
       890         7  POPC      H17R           -7.2933632872        2.8685304393        1.0107365194  MEMB      7               0.0000000000
       891         7  POPC      H17S           -7.2452512922        3.6080213070       -0.6114078843  MEMB      7               0.0000000000
       892         7  POPC      C218           -9.1452928525        3.3778148420        0.3180193767  MEMB      7               0.0000000000
       893         7  POPC      H18R           -9.7228534371        4.0694561804       -0.3318856879  MEMB      7               0.0000000000
       894         7  POPC      H18S           -9.4829794871        3.4688613386        1.3725338215  MEMB      7               0.0000000000
       895         7  POPC      H18T           -9.2919417830        2.3708027499       -0.1277853789  MEMB      7               0.0000000000
       896         7  POPC      C33            -8.0078073230        3.2730785013        9.6456381828  MEMB      7               0.0000000000
       897         7  POPC      H3X            -6.9667738012        2.9917839257        9.9129283479  MEMB      7               0.0000000000
       898         7  POPC      H3Y            -7.9934578963        4.1032988121        8.9074989044  MEMB      7               0.0000000000
       899         7  POPC      C34            -8.8016318034        2.0854618886        8.9979080587  MEMB      7               0.0000000000
       900         7  POPC      H4X            -9.7926340893        2.4301365890        8.6326214974  MEMB      7               0.0000000000
       901         7  POPC      H4Y            -8.8561378792        1.1825788161        9.6430066216  MEMB      7               0.0000000000
       902         7  POPC      C35            -8.1403041651        1.5620667913        7.7268947109  MEMB      7               0.0000000000
       903         7  POPC      H5X            -7.0619125420        1.3176510505        7.8348486396  MEMB      7               0.0000000000
       904         7  POPC      H5Y            -8.1025957695        2.4496052011        7.0596811166  MEMB      7               0.0000000000
       905         7  POPC      C36            -8.8354196084        0.3740874042        7.0566570520  MEMB      7               0.0000000000
       906         7  POPC      H6X            -8.8861668528       -0.5000920061        7.7404378462  MEMB      7               0.0000000000
       907         7  POPC      H6Y            -8.1938508386        0.1827987048        6.1700231550  MEMB      7               0.0000000000
       908         7  POPC      C37           -10.3129325340        0.7176016069        6.4361586184  MEMB      7               0.0000000000
       909         7  POPC      H7X           -11.0660595563        0.8194129534        7.2465626280  MEMB      7               0.0000000000
       910         7  POPC      H7Y           -10.8032190476       -0.1257740496        5.9045028968  MEMB      7               0.0000000000
       911         7  POPC      C38           -10.3553125861        1.9331086547        5.4999504330  MEMB      7               0.0000000000
       912         7  POPC      H8X            -9.8689435334        1.7862163354        4.5119273154  MEMB      7               0.0000000000
       913         7  POPC      H8Y            -9.8116394968        2.7846139939        5.9622049995  MEMB      7               0.0000000000
       914         7  POPC      C39           -11.7415880382        2.3763412560        5.1461363186  MEMB      7               0.0000000000
       915         7  POPC      H9X           -12.3717417247        1.4789661058        4.9674039956  MEMB      7               0.0000000000
       916         7  POPC      H9Y           -11.7812841728        2.8350503803        4.1350324892  MEMB      7               0.0000000000
       917         7  POPC      C310          -12.3933675760        3.3137339816        6.1977372288  MEMB      7               0.0000000000
       918         7  POPC      H10X          -12.3248575103        2.8115676626        7.1864006131  MEMB      7               0.0000000000
       919         7  POPC      H10Y          -13.4539994855        3.5477736809        5.9640567700  MEMB      7               0.0000000000
       920         7  POPC      C311          -11.8007697070        4.7349070911        6.3180807490  MEMB      7               0.0000000000
       921         7  POPC      H11X          -10.7392411215        4.6937122755        6.6433207395  MEMB      7               0.0000000000
       922         7  POPC      H11Y          -12.2802790071        5.3270777112        7.1266138680  MEMB      7               0.0000000000
       923         7  POPC      C312          -11.9331245456        5.4811784397        4.9831644828  MEMB      7               0.0000000000
       924         7  POPC      H12X          -12.9249465332        5.2354085461        4.5470364498  MEMB      7               0.0000000000
       925         7  POPC      H12Y          -11.1252738250        5.0011325056        4.3904976519  MEMB      7               0.0000000000
       926         7  POPC      C313          -11.5300294835        7.0164285800        4.9970654993  MEMB      7               0.0000000000
       927         7  POPC      H13X          -10.5810175635        7.0001627423        5.5745014491  MEMB      7               0.0000000000
       928         7  POPC      H13Y          -12.3265478140        7.5617712464        5.5470485494  MEMB      7               0.0000000000
       929         7  POPC      C314          -11.3684453844        7.4667063895        3.5465261315  MEMB      7               0.0000000000
       930         7  POPC      H14X          -10.7066308552        6.7391665930        3.0297981579  MEMB      7               0.0000000000
       931         7  POPC      H14Y          -10.8442370059        8.4392405301        3.4294629377  MEMB      7               0.0000000000
       932         7  POPC      C315          -12.6684368184        7.4160729043        2.7455823663  MEMB      7               0.0000000000
       933         7  POPC      H15X          -13.3937108845        8.0328175493        3.3182296723  MEMB      7               0.0000000000
       934         7  POPC      H15Y          -13.0691695057        6.3867961074        2.6259011555  MEMB      7               0.0000000000
       935         7  POPC      C316          -12.5623804736        7.9590595982        1.3004341290  MEMB      7               0.0000000000
       936         7  POPC      H16X          -11.6151758837        7.7453263356        0.7605804987  MEMB      7               0.0000000000
       937         7  POPC      H16Y          -12.6386738753        9.0596474698        1.4316070887  MEMB      7               0.0000000000
       938         7  POPC      H16Z          -13.4141075123        7.6407772426        0.6620149841  MEMB      7               0.0000000000
       939         8  POPC      N               6.9638204167       10.0886987225       21.1391944649  MEMB      8               0.0000000000
       940         8  POPC      C12             7.5602009910        9.8463848133       19.7429230322  MEMB      8               0.0000000000
       941         8  POPC      H12A            7.5352908329        8.7965449991       19.4907012397  MEMB      8               0.0000000000
       942         8  POPC      H12B            8.6131240756       10.0714957976       19.8270533739  MEMB      8               0.0000000000
       943         8  POPC      C13             7.0037584103       11.5540284178       21.4816655602  MEMB      8               0.0000000000
       944         8  POPC      H13A            8.0340406737       11.8011040642       21.6911224412  MEMB      8               0.0000000000
       945         8  POPC      H13B            6.6585705292       12.1867428770       20.6773537096  MEMB      8               0.0000000000
       946         8  POPC      H13C            6.4179226357       11.7311332297       22.3715142490  MEMB      8               0.0000000000
       947         8  POPC      C14             5.5665682972        9.7429286084       21.2792752813  MEMB      8               0.0000000000
       948         8  POPC      H14A            5.2354024071        9.8104284599       22.3050299250  MEMB      8               0.0000000000
       949         8  POPC      H14B            5.0483720616       10.4722507799       20.6743274384  MEMB      8               0.0000000000
       950         8  POPC      H14C            5.3060280648        8.7701627659       20.8890887419  MEMB      8               0.0000000000
       951         8  POPC      C15             7.7010057842        9.1940988696       22.0290591285  MEMB      8               0.0000000000
       952         8  POPC      H15A            7.2363284349        9.2295739095       23.0033367939  MEMB      8               0.0000000000
       953         8  POPC      H15B            8.7209064517        9.4870974510       22.2299438430  MEMB      8               0.0000000000
       954         8  POPC      H15C            7.7545622858        8.2083284851       21.5911226529  MEMB      8               0.0000000000
       955         8  POPC      C11             6.9965481669       10.4871712567       18.4438517472  MEMB      8               0.0000000000
       956         8  POPC      H11A            7.5467905706        9.9678631470       17.6302956716  MEMB      8               0.0000000000
       957         8  POPC      H11B            7.3284630926       11.5473074425       18.4601271554  MEMB      8               0.0000000000
       958         8  POPC      P               4.9370201465       10.1572334783       16.9426339951  MEMB      8               0.0000000000
       959         8  POPC      O13             3.4590232963       10.2750453215       17.1865816049  MEMB      8               0.0000000000
       960         8  POPC      O14             5.4538425370        8.9150008320       16.3322170790  MEMB      8               0.0000000000
       961         8  POPC      O12             5.5830137084       10.3899917978       18.3399903851  MEMB      8               0.0000000000
       962         8  POPC      O11             5.4478664767       11.3598647547       16.0826077268  MEMB      8               0.0000000000
       963         8  POPC      C1              4.9248358002       12.6107736208       16.4140935070  MEMB      8               0.0000000000
       964         8  POPC      HA              5.3741657470       12.8884557291       17.3914962632  MEMB      8               0.0000000000
       965         8  POPC      HB              3.8437211086       12.7422190944       16.6337159572  MEMB      8               0.0000000000
       966         8  POPC      C2              5.1205693470       13.7668596057       15.3523450958  MEMB      8               0.0000000000
       967         8  POPC      HS              4.4972323131       14.5417629703       15.8476198214  MEMB      8               0.0000000000
       968         8  POPC      O21             4.6508966890       13.1877280470       14.1019744017  MEMB      8               0.0000000000
       969         8  POPC      C21             3.8949633853       13.9511767885       13.3925820639  MEMB      8               0.0000000000
       970         8  POPC      O22             3.6117564898       15.1375200617       13.6231320036  MEMB      8               0.0000000000
       971         8  POPC      C22             3.3372157324       13.1637933276       12.1895635793  MEMB      8               0.0000000000
       972         8  POPC      H2R             2.2681807855       13.4566905714       12.2650371390  MEMB      8               0.0000000000
       973         8  POPC      H2S             3.5714871844       12.0841223130       12.3068173675  MEMB      8               0.0000000000
       974         8  POPC      C3              6.5232056412       14.3306398752       15.2611514476  MEMB      8               0.0000000000
       975         8  POPC      HX              6.8093928204       14.7281019771       16.2583684968  MEMB      8               0.0000000000
       976         8  POPC      HY              6.4652532702       15.1250455855       14.4866305627  MEMB      8               0.0000000000
       977         8  POPC      O31             7.3880022864       13.2134222652       15.0053748296  MEMB      8               0.0000000000
       978         8  POPC      C31             7.8998145783       13.0942499628       13.7514029874  MEMB      8               0.0000000000
       979         8  POPC      O32             8.0128754845       13.9524015365       12.9238646575  MEMB      8               0.0000000000
       980         8  POPC      C32             8.3841788988       11.7115681497       13.6635461265  MEMB      8               0.0000000000
       981         8  POPC      H2X             7.4306086310       11.1568640237       13.5319113326  MEMB      8               0.0000000000
       982         8  POPC      H2Y             8.9252359262       11.3394007409       14.5596877502  MEMB      8               0.0000000000
       983         8  POPC      C23             3.8761385382       13.6258672341       10.7512466359  MEMB      8               0.0000000000
       984         8  POPC      H3R             4.9839988456       13.6823457747       10.6897907331  MEMB      8               0.0000000000
       985         8  POPC      H3S             3.5615780902       14.6845184956       10.6302920272  MEMB      8               0.0000000000
       986         8  POPC      C24             3.2813237745       12.7511056399        9.5945400312  MEMB      8               0.0000000000
       987         8  POPC      H4R             2.2968690954       12.3724457920        9.9435193145  MEMB      8               0.0000000000
       988         8  POPC      H4S             3.8825572310       11.8374333260        9.3994953594  MEMB      8               0.0000000000
       989         8  POPC      C25             2.7916172489       13.4275998041        8.3278892825  MEMB      8               0.0000000000
       990         8  POPC      H5R             2.4580799877       14.4822264257        8.4319867805  MEMB      8               0.0000000000
       991         8  POPC      H5S             1.7709156032       13.0165558839        8.1744868721  MEMB      8               0.0000000000
       992         8  POPC      C26             3.6856594993       13.1636960667        7.1397282877  MEMB      8               0.0000000000
       993         8  POPC      H6R             3.8967196645       12.0781480780        7.0331450590  MEMB      8               0.0000000000
       994         8  POPC      H6S             4.6308397607       13.7461650178        7.1807801725  MEMB      8               0.0000000000
       995         8  POPC      C27             3.0219148621       13.7089926034        5.8678411945  MEMB      8               0.0000000000
       996         8  POPC      H7R             2.8017037715       14.7973358461        5.9044075832  MEMB      8               0.0000000000
       997         8  POPC      H7S             2.0765802695       13.1808576547        5.6193719562  MEMB      8               0.0000000000
       998         8  POPC      C28             3.9164483964       13.3651351834        4.6912724682  MEMB      8               0.0000000000
       999         8  POPC      H8R             3.4403651893       13.6435080118        3.7268170291  MEMB      8               0.0000000000
      1000         8  POPC      H8S             4.0169323505       12.2605204223        4.6276307381  MEMB      8               0.0000000000
      1001         8  POPC      C29             5.2234020777       14.0502663918        4.7511499449  MEMB      8               0.0000000000
      1002         8  POPC      H91             6.0526946431       13.6587547060        5.3585980337  MEMB      8               0.0000000000
      1003         8  POPC      C210            5.4914571038       15.2734148413        4.2024418486  MEMB      8               0.0000000000
      1004         8  POPC      H101            6.4181324817       15.8467913264        4.3524832494  MEMB      8               0.0000000000
      1005         8  POPC      C211            4.4923228398       16.1604367530        3.5026925500  MEMB      8               0.0000000000
      1006         8  POPC      H11R            3.6053167241       16.2609274272        4.1640879376  MEMB      8               0.0000000000
      1007         8  POPC      H11S            4.1226830080       15.6709267229        2.5763743232  MEMB      8               0.0000000000
      1008         8  POPC      C212            5.0436145543       17.5360544367        3.1192625395  MEMB      8               0.0000000000
      1009         8  POPC      H12R            5.5624219795       17.9751803299        3.9980840476  MEMB      8               0.0000000000
      1010         8  POPC      H12S            4.2511710046       18.2156682965        2.7391573485  MEMB      8               0.0000000000
      1011         8  POPC      C213            6.2381047545       17.5814654754        2.0655337064  MEMB      8               0.0000000000
      1012         8  POPC      H13R            6.9278730506       16.7876762896        2.4239190406  MEMB      8               0.0000000000
      1013         8  POPC      H13S            6.7102307285       18.5749978706        1.9096129788  MEMB      8               0.0000000000
      1014         8  POPC      C214            5.8147902209       17.1801271896        0.6303832951  MEMB      8               0.0000000000
      1015         8  POPC      H14R            4.9423729743       17.8469088186        0.4612357684  MEMB      8               0.0000000000
      1016         8  POPC      H14S            5.5053595010       16.1132682104        0.6107381402  MEMB      8               0.0000000000
      1017         8  POPC      C215            6.8936620584       17.3515631142       -0.4047173657  MEMB      8               0.0000000000
      1018         8  POPC      H15R            7.5039858766       18.2084952847       -0.0476557676  MEMB      8               0.0000000000
      1019         8  POPC      H15S            6.3726482304       17.6199993653       -1.3485434298  MEMB      8               0.0000000000
      1020         8  POPC      C216            7.7389057212       16.0540787951       -0.7754414437  MEMB      8               0.0000000000
      1021         8  POPC      H16R            7.0187589686       15.2749887587       -1.1051818330  MEMB      8               0.0000000000
      1022         8  POPC      H16S            8.1275694305       15.5764948396        0.1493144598  MEMB      8               0.0000000000
      1023         8  POPC      C217            8.8864091021       16.3207471352       -1.7637251467  MEMB      8               0.0000000000
      1024         8  POPC      H17R            9.6882718741       16.9056855044       -1.2645412695  MEMB      8               0.0000000000
      1025         8  POPC      H17S            8.5386526106       16.8703490062       -2.6644600409  MEMB      8               0.0000000000
      1026         8  POPC      C218            9.5004311051       15.0187293505       -2.3835033477  MEMB      8               0.0000000000
      1027         8  POPC      H18R            8.7765222581       14.1762755096       -2.4069226880  MEMB      8               0.0000000000
      1028         8  POPC      H18S           10.3689247913       14.5848334813       -1.8433425944  MEMB      8               0.0000000000
      1029         8  POPC      H18T            9.7857570172       15.2816837895       -3.4245432358  MEMB      8               0.0000000000
      1030         8  POPC      C33             9.3869387584       11.5609673919       12.4434126427  MEMB      8               0.0000000000
      1031         8  POPC      H3X            10.3056560925       12.1513977041       12.6475492666  MEMB      8               0.0000000000
      1032         8  POPC      H3Y             8.9033593051       12.0019867345       11.5456520755  MEMB      8               0.0000000000
      1033         8  POPC      C34             9.6192038290       10.1013426003       12.1193573314  MEMB      8               0.0000000000
      1034         8  POPC      H4X             8.6583764970        9.6455721994       11.7977904483  MEMB      8               0.0000000000
      1035         8  POPC      H4Y             9.9487499662        9.5479973334       13.0246359368  MEMB      8               0.0000000000
      1036         8  POPC      C35            10.5270878172        9.7580565523       11.0016311022  MEMB      8               0.0000000000
      1037         8  POPC      H5X            10.3844118586        8.7263076278       10.6150321630  MEMB      8               0.0000000000
      1038         8  POPC      H5Y            11.5903146207        9.7511586754       11.3238458753  MEMB      8               0.0000000000
      1039         8  POPC      C36            10.5399122976       10.6732613696        9.7099055174  MEMB      8               0.0000000000
      1040         8  POPC      H6X            11.3986303396       10.4075999287        9.0569517326  MEMB      8               0.0000000000
      1041         8  POPC      H6Y            10.7930176121       11.7313433792        9.9351184394  MEMB      8               0.0000000000
      1042         8  POPC      C37             9.2596938777       10.4870881636        8.9813244609  MEMB      8               0.0000000000
      1043         8  POPC      H7X             8.3863976588       10.5917096668        9.6600952573  MEMB      8               0.0000000000
      1044         8  POPC      H7Y             9.1801013140        9.4891321538        8.4995888165  MEMB      8               0.0000000000
      1045         8  POPC      C38             9.0344877559       11.3944724362        7.7164242476  MEMB      8               0.0000000000
      1046         8  POPC      H8X             9.4668264386       10.8212513318        6.8685912941  MEMB      8               0.0000000000
      1047         8  POPC      H8Y             9.5894720614       12.3437308216        7.8752381382  MEMB      8               0.0000000000
      1048         8  POPC      C39             7.6081338482       11.8019102280        7.4819781787  MEMB      8               0.0000000000
      1049         8  POPC      H9X             7.5217325586       12.4457165737        6.5806632828  MEMB      8               0.0000000000
      1050         8  POPC      H9Y             7.2247108503       12.4815982303        8.2727572751  MEMB      8               0.0000000000
      1051         8  POPC      C310            6.6640321641       10.6451198241        7.2883114838  MEMB      8               0.0000000000
      1052         8  POPC      H10X            5.6683735388       10.9981698996        6.9443047802  MEMB      8               0.0000000000
      1053         8  POPC      H10Y            6.5894861247       10.0945474587        8.2504098437  MEMB      8               0.0000000000
      1054         8  POPC      C311            7.0926586281        9.7512549969        6.1536778907  MEMB      8               0.0000000000
      1055         8  POPC      H11X            7.8775501853        9.0655417690        6.5384678259  MEMB      8               0.0000000000
      1056         8  POPC      H11Y            7.4581901626       10.4476737451        5.3690069161  MEMB      8               0.0000000000
      1057         8  POPC      C312            5.9704854621        8.9525290211        5.4340798301  MEMB      8               0.0000000000
      1058         8  POPC      H12X            5.2283268181        9.7342759422        5.1650195278  MEMB      8               0.0000000000
      1059         8  POPC      H12Y            5.4831194648        8.1354073848        6.0077585547  MEMB      8               0.0000000000
      1060         8  POPC      C313            6.4856727101        8.3011133101        4.0859479363  MEMB      8               0.0000000000
      1061         8  POPC      H13X            5.8662323971        7.4118675719        3.8412916336  MEMB      8               0.0000000000
      1062         8  POPC      H13Y            7.5730350061        8.1038726928        4.2002298283  MEMB      8               0.0000000000
      1063         8  POPC      C314            6.2032322151        9.2179898883        2.8661440180  MEMB      8               0.0000000000
      1064         8  POPC      H14X            6.7048774208        8.9166078522        1.9217694870  MEMB      8               0.0000000000
      1065         8  POPC      H14Y            6.6710010379       10.1604815937        3.2228268544  MEMB      8               0.0000000000
      1066         8  POPC      C315            4.7050010270        9.4804340069        2.5885690496  MEMB      8               0.0000000000
      1067         8  POPC      H15X            4.1261203191        9.8525073303        3.4607954362  MEMB      8               0.0000000000
      1068         8  POPC      H15Y            4.2724009599        8.4820317245        2.3641341173  MEMB      8               0.0000000000
      1069         8  POPC      C316            4.5202243948       10.4168582400        1.4218822069  MEMB      8               0.0000000000
      1070         8  POPC      H16X            5.1383223994       11.3341937807        1.5256679297  MEMB      8               0.0000000000
      1071         8  POPC      H16Y            3.4697753101       10.7786220468        1.4241308461  MEMB      8               0.0000000000
      1072         8  POPC      H16Z            4.7678631644        9.8783333599        0.4822085919  MEMB      8               0.0000000000
      1073         9  POPC      N             -12.0826115717       -2.8707707200       21.2412855473  MEMB      9               0.0000000000
      1074         9  POPC      C12           -12.9680588668       -2.9817413641       19.9500718823  MEMB      9               0.0000000000
      1075         9  POPC      H12A          -14.0040278190       -2.9474542869       20.2533749913  MEMB      9               0.0000000000
      1076         9  POPC      H12B          -12.9279738304       -3.9688665108       19.5137496276  MEMB      9               0.0000000000
      1077         9  POPC      C13           -12.7543038731       -3.7820215209       22.2337146823  MEMB      9               0.0000000000
      1078         9  POPC      H13A          -13.7544294053       -3.4633942607       22.4879303724  MEMB      9               0.0000000000
      1079         9  POPC      H13B          -12.6954292386       -4.7989149556       21.8747418067  MEMB      9               0.0000000000
      1080         9  POPC      H13C          -12.2818743782       -3.7281560944       23.2034096110  MEMB      9               0.0000000000
      1081         9  POPC      C14           -10.7249008457       -3.5407457475       21.0603222857  MEMB      9               0.0000000000
      1082         9  POPC      H14A          -10.1515859393       -3.6457055999       21.9695490543  MEMB      9               0.0000000000
      1083         9  POPC      H14B          -10.9280564499       -4.4904564210       20.5879055259  MEMB      9               0.0000000000
      1084         9  POPC      H14C          -10.1920341075       -2.8646307483       20.4081554700  MEMB      9               0.0000000000
      1085         9  POPC      C15           -11.7684464626       -1.4879137715       21.6960662741  MEMB      9               0.0000000000
      1086         9  POPC      H15A          -11.1244600494       -1.4340656846       22.5613879064  MEMB      9               0.0000000000
      1087         9  POPC      H15B          -12.6572193668       -0.9648599697       22.0168422646  MEMB      9               0.0000000000
      1088         9  POPC      H15C          -11.3005510407       -0.9469839613       20.8868264087  MEMB      9               0.0000000000
      1089         9  POPC      C11           -12.6547990504       -2.1020954339       18.7695762976  MEMB      9               0.0000000000
      1090         9  POPC      H11A          -12.5944255556       -1.0134890138       18.9831465220  MEMB      9               0.0000000000
      1091         9  POPC      H11B          -13.5923760168       -2.2856736446       18.2025053800  MEMB      9               0.0000000000
      1092         9  POPC      P             -11.6374781098       -3.4273931082       16.7905717977  MEMB      9               0.0000000000
      1093         9  POPC      O13           -11.8542781171       -4.8246361952       17.2011993744  MEMB      9               0.0000000000
      1094         9  POPC      O14           -10.4524549519       -3.2208470026       15.9051765585  MEMB      9               0.0000000000
      1095         9  POPC      O12           -11.5237356079       -2.5307010878       18.0766575339  MEMB      9               0.0000000000
      1096         9  POPC      O11           -12.8884438453       -2.9053613366       16.0753577349  MEMB      9               0.0000000000
      1097         9  POPC      C1            -13.9651633945       -3.7206115075       15.6256225300  MEMB      9               0.0000000000
      1098         9  POPC      HA            -14.7065931318       -2.9735996476       15.2698469606  MEMB      9               0.0000000000
      1099         9  POPC      HB            -14.4342636214       -4.0671101075       16.5712465479  MEMB      9               0.0000000000
      1100         9  POPC      C2            -13.8732542774       -4.6859537745       14.4278467953  MEMB      9               0.0000000000
      1101         9  POPC      HS            -13.7082243103       -5.7080745877       14.8307799404  MEMB      9               0.0000000000
      1102         9  POPC      O21           -12.7124081658       -4.2932717485       13.6987466785  MEMB      9               0.0000000000
      1103         9  POPC      C21           -11.9323790435       -5.2462201448       13.1777499390  MEMB      9               0.0000000000
      1104         9  POPC      O22           -12.1289734774       -6.4568520212       13.0792674306  MEMB      9               0.0000000000
      1105         9  POPC      C22           -10.5112578111       -4.6498702903       12.8479970625  MEMB      9               0.0000000000
      1106         9  POPC      H2R            -9.7679641675       -5.1247864585       13.5234892975  MEMB      9               0.0000000000
      1107         9  POPC      H2S           -10.5303443799       -3.5587136164       13.0561646394  MEMB      9               0.0000000000
      1108         9  POPC      C3            -15.1607665991       -4.6323185552       13.5506385364  MEMB      9               0.0000000000
      1109         9  POPC      HX            -16.0680178915       -4.7507351388       14.1808711284  MEMB      9               0.0000000000
      1110         9  POPC      HY            -15.0813680943       -5.4855895003       12.8435700147  MEMB      9               0.0000000000
      1111         9  POPC      O31           -15.1994706769       -3.3426532451       12.9508333897  MEMB      9               0.0000000000
      1112         9  POPC      C31           -15.7714836975       -3.2157639047       11.8045348153  MEMB      9               0.0000000000
      1113         9  POPC      O32           -16.4483138813       -4.0611157572       11.2169773003  MEMB      9               0.0000000000
      1114         9  POPC      C32           -15.7337603703       -1.7179995996       11.3791042111  MEMB      9               0.0000000000
      1115         9  POPC      H2X           -14.6978323314       -1.3584279442       11.2005485524  MEMB      9               0.0000000000
      1116         9  POPC      H2Y           -16.0764378630       -1.0686412424       12.2129066808  MEMB      9               0.0000000000
      1117         9  POPC      C23           -10.0931648041       -4.8100398137       11.4227701171  MEMB      9               0.0000000000
      1118         9  POPC      H3R           -10.0816652088       -5.8957947074       11.1875577465  MEMB      9               0.0000000000
      1119         9  POPC      H3S            -9.0540009859       -4.4786702144       11.2114569481  MEMB      9               0.0000000000
      1120         9  POPC      C24           -11.0820957632       -4.1303841008       10.3728561675  MEMB      9               0.0000000000
      1121         9  POPC      H4R           -11.1906266448       -3.0251436518       10.3414625555  MEMB      9               0.0000000000
      1122         9  POPC      H4S           -12.0832814873       -4.3845407799       10.7819433018  MEMB      9               0.0000000000
      1123         9  POPC      C25           -11.0127866490       -4.7858947670        8.9870280272  MEMB      9               0.0000000000
      1124         9  POPC      H5R           -10.6069590340       -5.8182011985        9.0500215369  MEMB      9               0.0000000000
      1125         9  POPC      H5S           -10.3193394125       -4.1036013583        8.4504389812  MEMB      9               0.0000000000
      1126         9  POPC      C26           -12.3674604340       -4.8294236788        8.2704326899  MEMB      9               0.0000000000
      1127         9  POPC      H6R           -12.8371744472       -3.8231702284        8.3042515947  MEMB      9               0.0000000000
      1128         9  POPC      H6S           -12.9606938308       -5.4562966619        8.9700219271  MEMB      9               0.0000000000
      1129         9  POPC      C27           -12.3474567754       -5.5105506844        6.8948021351  MEMB      9               0.0000000000
      1130         9  POPC      H7R           -13.3026508710       -6.0339227905        6.6756970601  MEMB      9               0.0000000000
      1131         9  POPC      H7S           -11.6130420941       -6.3392673202        6.9852731032  MEMB      9               0.0000000000
      1132         9  POPC      C28           -11.9740557785       -4.5631844047        5.7398792678  MEMB      9               0.0000000000
      1133         9  POPC      H8R           -11.0089568420       -4.0590631082        5.9607103034  MEMB      9               0.0000000000
      1134         9  POPC      H8S           -12.7038109207       -3.7365842024        5.6038237404  MEMB      9               0.0000000000
      1135         9  POPC      C29           -11.7483706925       -5.3052209341        4.3727219205  MEMB      9               0.0000000000
      1136         9  POPC      H91           -10.8358828514       -5.8853499281        4.1706907579  MEMB      9               0.0000000000
      1137         9  POPC      C210          -12.5339661451       -5.3320758000        3.3141675179  MEMB      9               0.0000000000
      1138         9  POPC      H101          -12.2269248155       -5.7969558783        2.3656893774  MEMB      9               0.0000000000
      1139         9  POPC      C211          -13.8625538205       -4.6685539501        3.1482974610  MEMB      9               0.0000000000
      1140         9  POPC      H11R          -13.6645695169       -3.8763744065        2.3949206396  MEMB      9               0.0000000000
      1141         9  POPC      H11S          -14.2056221111       -4.2938136811        4.1363227915  MEMB      9               0.0000000000
      1142         9  POPC      C212          -15.1596437843       -5.4891782772        2.7715488396  MEMB      9               0.0000000000
      1143         9  POPC      H12R          -15.9399932515       -4.7230920131        2.5753671413  MEMB      9               0.0000000000
      1144         9  POPC      H12S          -15.5065069965       -6.0405518279        3.6715459598  MEMB      9               0.0000000000
      1145         9  POPC      C213          -15.1573254843       -6.3989652447        1.6229967504  MEMB      9               0.0000000000
      1146         9  POPC      H13R          -16.1497200621       -6.8649185607        1.4431023645  MEMB      9               0.0000000000
      1147         9  POPC      H13S          -14.3984351456       -7.2094777003        1.6614089782  MEMB      9               0.0000000000
      1148         9  POPC      C214          -14.9242394587       -5.6440884362        0.2547977311  MEMB      9               0.0000000000
      1149         9  POPC      H14R          -14.7012915173       -6.4752741821       -0.4478717602  MEMB      9               0.0000000000
      1150         9  POPC      H14S          -14.0140501034       -5.0257585140        0.4082390696  MEMB      9               0.0000000000
      1151         9  POPC      C215          -16.0964047587       -4.8162391596       -0.2173673214  MEMB      9               0.0000000000
      1152         9  POPC      H15R          -16.4303487292       -4.0640601511        0.5289759689  MEMB      9               0.0000000000
      1153         9  POPC      H15S          -16.9533104647       -5.4967686508       -0.4094953005  MEMB      9               0.0000000000
      1154         9  POPC      C216          -15.8415316091       -4.0320000084       -1.4662987970  MEMB      9               0.0000000000
      1155         9  POPC      H16R          -15.7462095589       -4.8081965633       -2.2554464229  MEMB      9               0.0000000000
      1156         9  POPC      H16S          -14.8420727564       -3.5468176482       -1.4674591995  MEMB      9               0.0000000000
      1157         9  POPC      C217          -16.9541022809       -3.0081605654       -1.8002852178  MEMB      9               0.0000000000
      1158         9  POPC      H17R          -16.5753956123       -2.4433142960       -2.6788352251  MEMB      9               0.0000000000
      1159         9  POPC      H17S          -17.0037573245       -2.2017750566       -1.0376602870  MEMB      9               0.0000000000
      1160         9  POPC      C218          -18.3526348224       -3.5413673901       -2.1154023320  MEMB      9               0.0000000000
      1161         9  POPC      H18R          -18.9121632111       -2.6839973620       -2.5468723623  MEMB      9               0.0000000000
      1162         9  POPC      H18S          -18.8024760210       -3.8246079898       -1.1398303944  MEMB      9               0.0000000000
      1163         9  POPC      H18T          -18.3435425910       -4.3698704787       -2.8555505768  MEMB      9               0.0000000000
      1164         9  POPC      C33           -16.6444006609       -1.5109846835       10.1447794685  MEMB      9               0.0000000000
      1165         9  POPC      H3X           -16.7770606319       -0.4083127035       10.1737039729  MEMB      9               0.0000000000
      1166         9  POPC      H3Y           -17.7157240781       -1.7846879296       10.2528246767  MEMB      9               0.0000000000
      1167         9  POPC      C34           -15.9816137550       -2.1100374984        8.8609078626  MEMB      9               0.0000000000
      1168         9  POPC      H4X           -15.0151092202       -2.5827025260        9.1379954219  MEMB      9               0.0000000000
      1169         9  POPC      H4Y           -15.5538362767       -1.2560181700        8.2934760517  MEMB      9               0.0000000000
      1170         9  POPC      C35           -16.8053312363       -2.9360887290        7.8994637775  MEMB      9               0.0000000000
      1171         9  POPC      H5X           -17.7793472670       -2.4025947046        7.8678692805  MEMB      9               0.0000000000
      1172         9  POPC      H5Y           -16.9585505685       -3.9399273637        8.3501879702  MEMB      9               0.0000000000
      1173         9  POPC      C36           -16.3520600834       -3.0125902427        6.4157034540  MEMB      9               0.0000000000
      1174         9  POPC      H6X           -16.8689748621       -3.7591465867        5.7755678258  MEMB      9               0.0000000000
      1175         9  POPC      H6Y           -15.2540112596       -3.1786047180        6.4480907920  MEMB      9               0.0000000000
      1176         9  POPC      C37           -16.4329361416       -1.6169910982        5.7812110517  MEMB      9               0.0000000000
      1177         9  POPC      H7X           -15.9452963096       -0.8826757710        6.4574575087  MEMB      9               0.0000000000
      1178         9  POPC      H7Y           -17.5107341197       -1.3540820288        5.8408013376  MEMB      9               0.0000000000
      1179         9  POPC      C38           -15.9521806849       -1.4822123250        4.3263931264  MEMB      9               0.0000000000
      1180         9  POPC      H8X           -16.7018661718       -0.8962115027        3.7528987839  MEMB      9               0.0000000000
      1181         9  POPC      H8Y           -15.9195428823       -2.4330341447        3.7526396218  MEMB      9               0.0000000000
      1182         9  POPC      C39           -14.6248752443       -0.7739499684        4.1750810246  MEMB      9               0.0000000000
      1183         9  POPC      H9X           -13.9243500916       -1.3506207912        4.8162022361  MEMB      9               0.0000000000
      1184         9  POPC      H9Y           -14.6388000963        0.2414115084        4.6258230945  MEMB      9               0.0000000000
      1185         9  POPC      C310          -14.1190434881       -0.6792862083        2.7527152514  MEMB      9               0.0000000000
      1186         9  POPC      H10X          -14.6063795453        0.1376743774        2.1787809686  MEMB      9               0.0000000000
      1187         9  POPC      H10Y          -14.1594933871       -1.7071925625        2.3330808152  MEMB      9               0.0000000000
      1188         9  POPC      C311          -12.5973299193       -0.3980861978        2.8153862071  MEMB      9               0.0000000000
      1189         9  POPC      H11X          -12.1610570030       -1.1861148150        3.4657695762  MEMB      9               0.0000000000
      1190         9  POPC      H11Y          -12.4026987728        0.6161902877        3.2248777895  MEMB      9               0.0000000000
      1191         9  POPC      C312          -11.8746945028       -0.4033187496        1.5287521052  MEMB      9               0.0000000000
      1192         9  POPC      H12X          -12.2676410156        0.3864534274        0.8533459311  MEMB      9               0.0000000000
      1193         9  POPC      H12Y          -11.9924391685       -1.3747872074        1.0027239508  MEMB      9               0.0000000000
      1194         9  POPC      C313          -10.3213550490       -0.3249558667        1.7854054188  MEMB      9               0.0000000000
      1195         9  POPC      H13X          -10.0065850409        0.4949816270        2.4658050606  MEMB      9               0.0000000000
      1196         9  POPC      H13Y           -9.8741818336       -0.1611640551        0.7816478622  MEMB      9               0.0000000000
      1197         9  POPC      C314           -9.5967610587       -1.4807155892        2.5118368654  MEMB      9               0.0000000000
      1198         9  POPC      H14X           -9.8155486903       -1.6015812678        3.5943541817  MEMB      9               0.0000000000
      1199         9  POPC      H14Y           -8.5231634701       -1.2252564043        2.6400898505  MEMB      9               0.0000000000
      1200         9  POPC      C315           -9.7956693212       -2.9087894965        1.9198864415  MEMB      9               0.0000000000
      1201         9  POPC      H15X          -10.8889308334       -3.1045996580        1.9474342023  MEMB      9               0.0000000000
      1202         9  POPC      H15Y           -9.1241307952       -3.5715735487        2.5064648842  MEMB      9               0.0000000000
      1203         9  POPC      C316           -9.4253907905       -2.9050171687        0.3971270772  MEMB      9               0.0000000000
      1204         9  POPC      H16X           -9.6572409212       -3.8958709117       -0.0487156970  MEMB      9               0.0000000000
      1205         9  POPC      H16Y           -8.3311265262       -2.7205069828        0.3436229927  MEMB      9               0.0000000000
      1206         9  POPC      H16Z           -9.8872503613       -2.0731127834       -0.1764086574  MEMB      9               0.0000000000
      1207        10  POPC      N              10.7326957785        2.8912475366       18.9257372642  MEMB      10              0.0000000000
      1208        10  POPC      C12            10.9535926373        4.1569378150       18.1493152786  MEMB      10              0.0000000000
      1209        10  POPC      H12A           10.3127632673        4.9697629545       18.4576217524  MEMB      10              0.0000000000
      1210        10  POPC      H12B           10.7348323901        3.9544036949       17.1112768832  MEMB      10              0.0000000000
      1211        10  POPC      C13             9.4153570246        2.2590516160       18.5039940071  MEMB      10              0.0000000000
      1212        10  POPC      H13A            9.1458792015        1.5921746739       19.3096346038  MEMB      10              0.0000000000
      1213        10  POPC      H13B            8.7784825953        3.1248092498       18.3979057525  MEMB      10              0.0000000000
      1214        10  POPC      H13C            9.5211155090        1.7720935852       17.5458254441  MEMB      10              0.0000000000
      1215        10  POPC      C14            11.9014163889        1.9809380123       18.4620535202  MEMB      10              0.0000000000
      1216        10  POPC      H14A           11.7547493242        0.9948270400       18.8773530637  MEMB      10              0.0000000000
      1217        10  POPC      H14B           11.7854422888        1.8192264582       17.4005454730  MEMB      10              0.0000000000
      1218        10  POPC      H14C           12.8576432732        2.4601340971       18.6117241438  MEMB      10              0.0000000000
      1219        10  POPC      C15            10.8605543124        3.0142830504       20.4081634722  MEMB      10              0.0000000000
      1220        10  POPC      H15A           11.5978989595        3.7081656889       20.7839956461  MEMB      10              0.0000000000
      1221        10  POPC      H15B           11.0487199018        2.0454182390       20.8466778173  MEMB      10              0.0000000000
      1222        10  POPC      H15C            9.8745633009        3.3280925580       20.7175904727  MEMB      10              0.0000000000
      1223        10  POPC      C11            12.4048261383        4.7777860795       18.1689023319  MEMB      10              0.0000000000
      1224        10  POPC      H11A           12.3640134482        5.6511139882       17.4833706985  MEMB      10              0.0000000000
      1225        10  POPC      H11B           13.1353125594        4.1390193949       17.6278962075  MEMB      10              0.0000000000
      1226        10  POPC      P              14.1860953628        6.2359974391       19.4035321170  MEMB      10              0.0000000000
      1227        10  POPC      O13            15.3408625206        5.6185605751       20.1527821643  MEMB      10              0.0000000000
      1228        10  POPC      O14            13.7889331374        7.6297017188       19.6162760711  MEMB      10              0.0000000000
      1229        10  POPC      O12            13.0098038628        5.1996722027       19.3978406164  MEMB      10              0.0000000000
      1230        10  POPC      O11            14.6478556192        6.1864642899       17.8114031546  MEMB      10              0.0000000000
      1231        10  POPC      C1             15.8326339040        6.9542742578       17.4537498525  MEMB      10              0.0000000000
      1232        10  POPC      HA             16.4053973755        6.4485508296       16.6472100286  MEMB      10              0.0000000000
      1233        10  POPC      HB             16.5194610295        7.1553517668       18.3035483268  MEMB      10              0.0000000000
      1234        10  POPC      C2             15.3966928322        8.3975643022       17.0899579836  MEMB      10              0.0000000000
      1235        10  POPC      HS             15.0029127013        8.8531655809       18.0235989933  MEMB      10              0.0000000000
      1236        10  POPC      O21            14.3436102020        8.3329613508       16.0862381063  MEMB      10              0.0000000000
      1237        10  POPC      C21            13.4051050932        9.2164707212       16.2167458041  MEMB      10              0.0000000000
      1238        10  POPC      O22            13.3806412521       10.1429793952       16.9711421561  MEMB      10              0.0000000000
      1239        10  POPC      C22            12.2733944201        8.8942926673       15.2596596305  MEMB      10              0.0000000000
      1240        10  POPC      H2R            11.5105109249        9.7009466462       15.2191773818  MEMB      10              0.0000000000
      1241        10  POPC      H2S            11.8612869733        7.9076865358       15.5614826216  MEMB      10              0.0000000000
      1242        10  POPC      C3             16.5387480157        9.3223409396       16.5681900005  MEMB      10              0.0000000000
      1243        10  POPC      HX             17.3628150778        9.4616859310       17.3001852171  MEMB      10              0.0000000000
      1244        10  POPC      HY             16.0252851635       10.2816529670       16.3436956897  MEMB      10              0.0000000000
      1245        10  POPC      O31            17.1676560437        8.7679276203       15.4047361180  MEMB      10              0.0000000000
      1246        10  POPC      C31            16.7265685327        9.1170512065       14.2164823645  MEMB      10              0.0000000000
      1247        10  POPC      O32            15.8722456952        9.9117289888       13.9972438451  MEMB      10              0.0000000000
      1248        10  POPC      C32            17.3536233278        8.3240103609       13.0574952392  MEMB      10              0.0000000000
      1249        10  POPC      H2X            17.1424452213        7.2419732650       13.1950470211  MEMB      10              0.0000000000
      1250        10  POPC      H2Y            18.4539701848        8.4675268525       13.0030771331  MEMB      10              0.0000000000
      1251        10  POPC      C23            12.8330858132        8.6531837945       13.8083593559  MEMB      10              0.0000000000
      1252        10  POPC      H3R            13.7529318292        8.0336823018       13.7418595059  MEMB      10              0.0000000000
      1253        10  POPC      H3S            13.0606042597        9.6406348627       13.3528414833  MEMB      10              0.0000000000
      1254        10  POPC      C24            11.8811511298        7.9400728520       12.8182898156  MEMB      10              0.0000000000
      1255        10  POPC      H4R            10.8282529507        8.2933966569       12.8481052837  MEMB      10              0.0000000000
      1256        10  POPC      H4S            11.9883595624        6.8493926877       13.0006191071  MEMB      10              0.0000000000
      1257        10  POPC      C25            12.3414745518        8.2043038876       11.3161829711  MEMB      10              0.0000000000
      1258        10  POPC      H5R            13.3148758461        7.6743504562       11.2389792419  MEMB      10              0.0000000000
      1259        10  POPC      H5S            12.5039015586        9.2637692005       11.0238280216  MEMB      10              0.0000000000
      1260        10  POPC      C26            11.5094056816        7.4594916257       10.2110268970  MEMB      10              0.0000000000
      1261        10  POPC      H6R            12.1383145318        7.5650890317        9.3012778664  MEMB      10              0.0000000000
      1262        10  POPC      H6S            10.4835282075        7.8643258645       10.0768422809  MEMB      10              0.0000000000
      1263        10  POPC      C27            11.3248615493        5.9794286730       10.5913968002  MEMB      10              0.0000000000
      1264        10  POPC      H7R            10.5996102135        5.8533008310       11.4235165056  MEMB      10              0.0000000000
      1265        10  POPC      H7S            12.2695866079        5.5387595851       10.9756186030  MEMB      10              0.0000000000
      1266        10  POPC      C28            10.8417589172        5.0105831436        9.5055246365  MEMB      10              0.0000000000
      1267        10  POPC      H8R            10.6671904412        4.0564903725       10.0473306618  MEMB      10              0.0000000000
      1268        10  POPC      H8S            11.5991312381        4.9768395632        8.6933860093  MEMB      10              0.0000000000
      1269        10  POPC      C29             9.5962213551        5.5955042960        8.8966995662  MEMB      10              0.0000000000
      1270        10  POPC      H91             8.9760383764        5.9479979114        9.7340287034  MEMB      10              0.0000000000
      1271        10  POPC      C210            9.1567552083        5.4336976920        7.6141980094  MEMB      10              0.0000000000
      1272        10  POPC      H101            8.2320362533        5.9406338469        7.3012904697  MEMB      10              0.0000000000
      1273        10  POPC      C211            9.8652747020        4.6015099886        6.5847041079  MEMB      10              0.0000000000
      1274        10  POPC      H11R            9.2082363247        4.5058307353        5.6939360363  MEMB      10              0.0000000000
      1275        10  POPC      H11S           10.2171129492        3.6185373873        6.9645668511  MEMB      10              0.0000000000
      1276        10  POPC      C212           10.9395211169        5.4771729049        5.9541293216  MEMB      10              0.0000000000
      1277        10  POPC      H12R           11.5833539573        4.9751492288        5.2006224569  MEMB      10              0.0000000000
      1278        10  POPC      H12S           11.7076646971        5.8968669784        6.6383322941  MEMB      10              0.0000000000
      1279        10  POPC      C213           10.3062398060        6.6640706702        5.1630912832  MEMB      10              0.0000000000
      1280        10  POPC      H13R            9.8429864060        7.4503102205        5.7967670991  MEMB      10              0.0000000000
      1281        10  POPC      H13S            9.5799055488        6.2627549737        4.4243723104  MEMB      10              0.0000000000
      1282        10  POPC      C214           11.3603973844        7.4253932758        4.2852492317  MEMB      10              0.0000000000
      1283        10  POPC      H14R           12.2582209753        7.5374504705        4.9299789915  MEMB      10              0.0000000000
      1284        10  POPC      H14S           10.9434732815        8.4444850927        4.1371041937  MEMB      10              0.0000000000
      1285        10  POPC      C215           11.7149287079        6.7770119513        3.0025170987  MEMB      10              0.0000000000
      1286        10  POPC      H15R           10.8694094239        6.1805640304        2.5979592448  MEMB      10              0.0000000000
      1287        10  POPC      H15S           12.4518708893        5.9839505883        3.2520978164  MEMB      10              0.0000000000
      1288        10  POPC      C216           12.2874808625        7.6361494964        1.8529201914  MEMB      10              0.0000000000
      1289        10  POPC      H16R           12.6796733701        6.9631957878        1.0606827165  MEMB      10              0.0000000000
      1290        10  POPC      H16S           13.1637937679        8.2333904052        2.1841295840  MEMB      10              0.0000000000
      1291        10  POPC      C217           11.3006736161        8.5877714356        1.2161350771  MEMB      10              0.0000000000
      1292        10  POPC      H17R           10.7971255091        9.1890140795        2.0030703250  MEMB      10              0.0000000000
      1293        10  POPC      H17S           10.4505492572        8.0261451295        0.7732053910  MEMB      10              0.0000000000
      1294        10  POPC      C218           11.9458783971        9.5073485142        0.1163924370  MEMB      10              0.0000000000
      1295        10  POPC      H18R           12.5568429158        8.9495248629       -0.6251425878  MEMB      10              0.0000000000
      1296        10  POPC      H18S           12.5764680514       10.3413669946        0.4920129968  MEMB      10              0.0000000000
      1297        10  POPC      H18T           11.1303948222        9.9711315250       -0.4787653802  MEMB      10              0.0000000000
      1298        10  POPC      C33            16.6250419158        8.5618104292       11.6417997352  MEMB      10              0.0000000000
      1299        10  POPC      H3X            16.9233719618        9.5525048796       11.2370217060  MEMB      10              0.0000000000
      1300        10  POPC      H3Y            15.5205482108        8.5863848802       11.7593162997  MEMB      10              0.0000000000
      1301        10  POPC      C34            17.0291000435        7.4929437516       10.5594713880  MEMB      10              0.0000000000
      1302        10  POPC      H4X            16.9867581552        6.4485966849       10.9361242515  MEMB      10              0.0000000000
      1303        10  POPC      H4Y            18.1006006249        7.7604197973       10.4383748817  MEMB      10              0.0000000000
      1304        10  POPC      C35            16.2102348868        7.6796655625        9.2991811397  MEMB      10              0.0000000000
      1305        10  POPC      H5X            16.1679418888        8.7832814306        9.1784979142  MEMB      10              0.0000000000
      1306        10  POPC      H5Y            15.2089540944        7.2619984496        9.5385801574  MEMB      10              0.0000000000
      1307        10  POPC      C36            16.9276601631        7.0622279314        8.0741908091  MEMB      10              0.0000000000
      1308        10  POPC      H6X            17.1946510383        6.0191274921        8.3480126596  MEMB      10              0.0000000000
      1309        10  POPC      H6Y            17.8395865388        7.6333947100        7.7976410093  MEMB      10              0.0000000000
      1310        10  POPC      C37            15.9836689610        6.9685519905        6.7687146179  MEMB      10              0.0000000000
      1311        10  POPC      H7X            15.0681695271        7.5959889275        6.8187635943  MEMB      10              0.0000000000
      1312        10  POPC      H7Y            15.5685587737        5.9408618082        6.8452500758  MEMB      10              0.0000000000
      1313        10  POPC      C38            16.6752605295        7.1416107337        5.4194224954  MEMB      10              0.0000000000
      1314        10  POPC      H8X            17.7197240187        6.8287287473        5.6327813566  MEMB      10              0.0000000000
      1315        10  POPC      H8Y            16.5439527481        8.2164774661        5.1709446821  MEMB      10              0.0000000000
      1316        10  POPC      C39            16.0331241312        6.2610631227        4.3779091326  MEMB      10              0.0000000000
      1317        10  POPC      H9X            14.9906728677        6.6353046769        4.2909631969  MEMB      10              0.0000000000
      1318        10  POPC      H9Y            15.8756609625        5.2051007151        4.6852686455  MEMB      10              0.0000000000
      1319        10  POPC      C310           16.6808098991        6.2909827064        2.9694127352  MEMB      10              0.0000000000
      1320        10  POPC      H10X           17.6566753438        5.7811937410        3.1181499388  MEMB      10              0.0000000000
      1321        10  POPC      H10Y           16.8318024976        7.3162914817        2.5690833226  MEMB      10              0.0000000000
      1322        10  POPC      C311           15.8898280215        5.4689789441        1.9853410438  MEMB      10              0.0000000000
      1323        10  POPC      H11X           16.4636070549        5.5623398240        1.0385660120  MEMB      10              0.0000000000
      1324        10  POPC      H11Y           15.0041052374        6.1123937164        1.7960436003  MEMB      10              0.0000000000
      1325        10  POPC      C312           15.6871895558        3.9961877244        2.4080444355  MEMB      10              0.0000000000
      1326        10  POPC      H12X           15.1136787499        3.9650746879        3.3590637680  MEMB      10              0.0000000000
      1327        10  POPC      H12Y           16.6713792171        3.5438967338        2.6552774491  MEMB      10              0.0000000000
      1328        10  POPC      C313           14.8952503767        3.1103920975        1.4764443485  MEMB      10              0.0000000000
      1329        10  POPC      H13X           13.9359119091        3.6537118462        1.3393512818  MEMB      10              0.0000000000
      1330        10  POPC      H13Y           14.6001564517        2.1482906544        1.9471892669  MEMB      10              0.0000000000
      1331        10  POPC      C314           15.5159377628        2.8081516109        0.0768798788  MEMB      10              0.0000000000
      1332        10  POPC      H14X           16.3646967773        2.0979636209        0.1746661662  MEMB      10              0.0000000000
      1333        10  POPC      H14Y           15.8626339411        3.7740419623       -0.3487718477  MEMB      10              0.0000000000
      1334        10  POPC      C315           14.6217112869        2.1779191768       -1.0112626462  MEMB      10              0.0000000000
      1335        10  POPC      H15X           15.1907035506        1.7415631021       -1.8598870279  MEMB      10              0.0000000000
      1336        10  POPC      H15Y           13.8756755317        2.8774221146       -1.4453680487  MEMB      10              0.0000000000
      1337        10  POPC      C316           13.7250520352        0.9805488885       -0.3479521823  MEMB      10              0.0000000000
      1338        10  POPC      H16X           14.4209504617        0.3407147221        0.2357074138  MEMB      10              0.0000000000
      1339        10  POPC      H16Y           13.4313485036        0.2445234116       -1.1266207734  MEMB      10              0.0000000000
      1340        10  POPC      H16Z           12.9279324461        1.4120372578        0.2944950311  MEMB      10              0.0000000000
      1341        11  POPC      N               7.8695374899      -12.7668341608       20.1593649250  MEMB      11              0.0000000000
      1342        11  POPC      C12             9.0980418114      -13.5393999214       20.0077859498  MEMB      11              0.0000000000
      1343        11  POPC      H12A            8.9009568527      -14.5962127894       19.9043261168  MEMB      11              0.0000000000
      1344        11  POPC      H12B            9.5947801069      -13.4175802419       20.9590013722  MEMB      11              0.0000000000
      1345        11  POPC      C13             8.0648615003      -11.3061853406       20.3492175588  MEMB      11              0.0000000000
      1346        11  POPC      H13A            8.3451953996      -10.7048016787       19.4970728795  MEMB      11              0.0000000000
      1347        11  POPC      H13B            7.2775787690      -10.8070762550       20.8946313525  MEMB      11              0.0000000000
      1348        11  POPC      H13C            8.8792754123      -11.1631209357       21.0439569624  MEMB      11              0.0000000000
      1349        11  POPC      C14             7.0679984323      -13.0006211824       18.8191414862  MEMB      11              0.0000000000
      1350        11  POPC      H14A            6.0511344915      -12.6956011560       19.0175106860  MEMB      11              0.0000000000
      1351        11  POPC      H14B            7.4051499947      -12.4457859697       17.9560732890  MEMB      11              0.0000000000
      1352        11  POPC      H14C            6.9831978080      -14.0417355581       18.5447521385  MEMB      11              0.0000000000
      1353        11  POPC      C15             7.0725216567      -13.3571631500       21.3206459342  MEMB      11              0.0000000000
      1354        11  POPC      H15A            6.8984078831      -14.3808936038       21.0238961299  MEMB      11              0.0000000000
      1355        11  POPC      H15B            6.1609476517      -12.7832049783       21.3981370508  MEMB      11              0.0000000000
      1356        11  POPC      H15C            7.6770603233      -13.1946070985       22.2007077448  MEMB      11              0.0000000000
      1357        11  POPC      C11            10.1601700704      -13.1643013402       18.9404810089  MEMB      11              0.0000000000
      1358        11  POPC      H11A            9.6389199696      -13.4432143304       17.9998286332  MEMB      11              0.0000000000
      1359        11  POPC      H11B           11.1098931781      -13.7407948953       18.9418461971  MEMB      11              0.0000000000
      1360        11  POPC      P              11.2183401261      -10.9376540645       17.9254616064  MEMB      11              0.0000000000
      1361        11  POPC      O13            12.6497491768      -10.8933778541       18.2566740821  MEMB      11              0.0000000000
      1362        11  POPC      O14            10.5059479648       -9.6473214265       17.5999560048  MEMB      11              0.0000000000
      1363        11  POPC      O12            10.3417800494      -11.7538841674       18.9929017500  MEMB      11              0.0000000000
      1364        11  POPC      O11            11.1224429869      -11.8794967916       16.6283696884  MEMB      11              0.0000000000
      1365        11  POPC      C1             12.2648082761      -12.4411364870       16.0766595366  MEMB      11              0.0000000000
      1366        11  POPC      HA             12.6007642665      -13.3056284223       16.6883035398  MEMB      11              0.0000000000
      1367        11  POPC      HB             13.1219903358      -11.7350118256       16.1074478135  MEMB      11              0.0000000000
      1368        11  POPC      C2             12.1679909388      -12.9299157847       14.6405292272  MEMB      11              0.0000000000
      1369        11  POPC      HS             13.1296867201      -13.3680372413       14.2977299647  MEMB      11              0.0000000000
      1370        11  POPC      O21            11.5810498421      -11.9355168127       13.8346789999  MEMB      11              0.0000000000
      1371        11  POPC      C21            12.4767395541      -11.2215350567       13.0712496478  MEMB      11              0.0000000000
      1372        11  POPC      O22            13.6591485452      -11.4677340043       13.0406916178  MEMB      11              0.0000000000
      1373        11  POPC      C22            11.6910798529      -10.1695867062       12.3165614050  MEMB      11              0.0000000000
      1374        11  POPC      H2R            12.2748857514       -9.2244745621       12.3325103152  MEMB      11              0.0000000000
      1375        11  POPC      H2S            10.7061320428       -9.9272913150       12.7698737849  MEMB      11              0.0000000000
      1376        11  POPC      C3             11.3209455459      -14.2589853240       14.5385698417  MEMB      11              0.0000000000
      1377        11  POPC      HX             10.2501546764      -14.0927220236       14.7836917741  MEMB      11              0.0000000000
      1378        11  POPC      HY             11.5818909858      -15.0492776258       15.2745498650  MEMB      11              0.0000000000
      1379        11  POPC      O31            11.4833608282      -14.8684066422       13.2666072683  MEMB      11              0.0000000000
      1380        11  POPC      C31            10.8279106342      -14.2888220310       12.2728151664  MEMB      11              0.0000000000
      1381        11  POPC      O32             9.9702416645      -13.3844083609       12.3177104788  MEMB      11              0.0000000000
      1382        11  POPC      C32            11.1617147964      -15.1612018249       10.9879793957  MEMB      11              0.0000000000
      1383        11  POPC      H2X            10.2420282617      -15.4322825006       10.4267193374  MEMB      11              0.0000000000
      1384        11  POPC      H2Y            11.7724866910      -16.0445812378       11.2724428379  MEMB      11              0.0000000000
      1385        11  POPC      C23            11.6710278669      -10.7061912472       10.8299641643  MEMB      11              0.0000000000
      1386        11  POPC      H3R            10.6433851303      -11.0282704910       10.5569505847  MEMB      11              0.0000000000
      1387        11  POPC      H3S            12.3810912380      -11.5504746440       10.6983713569  MEMB      11              0.0000000000
      1388        11  POPC      C24            12.1547976305       -9.5772976512        9.8762206116  MEMB      11              0.0000000000
      1389        11  POPC      H4R            13.2452942464       -9.3918277806        9.9798505348  MEMB      11              0.0000000000
      1390        11  POPC      H4S            11.7763356595       -8.5658585630       10.1371388336  MEMB      11              0.0000000000
      1391        11  POPC      C25            11.8721630036       -9.6524383262        8.3641443088  MEMB      11              0.0000000000
      1392        11  POPC      H5R            12.4949887219      -10.4974794289        8.0003931579  MEMB      11              0.0000000000
      1393        11  POPC      H5S            12.1643342924       -8.7479899436        7.7888793484  MEMB      11              0.0000000000
      1394        11  POPC      C26            10.4229688628       -9.8195740150        7.9815212914  MEMB      11              0.0000000000
      1395        11  POPC      H6R             9.8572486026       -8.8681275371        7.8864907945  MEMB      11              0.0000000000
      1396        11  POPC      H6S             9.8880036688      -10.4949791624        8.6829213846  MEMB      11              0.0000000000
      1397        11  POPC      C27            10.3501416771      -10.4074857370        6.6337262407  MEMB      11              0.0000000000
      1398        11  POPC      H7R            10.6734114478      -11.4701880753        6.6117847263  MEMB      11              0.0000000000
      1399        11  POPC      H7S            11.0214569226       -9.9188344225        5.8955681365  MEMB      11              0.0000000000
      1400        11  POPC      C28             8.8780575477      -10.4137165062        6.1220735574  MEMB      11              0.0000000000
      1401        11  POPC      H8R             8.6875392932      -11.0311691926        5.2183165589  MEMB      11              0.0000000000
      1402        11  POPC      H8S             8.6871253935       -9.4446176620        5.6134346738  MEMB      11              0.0000000000
      1403        11  POPC      C29             7.7969023596      -10.7827727415        7.1173600310  MEMB      11              0.0000000000
      1404        11  POPC      H91             7.1586513749       -9.9888249791        7.5324289914  MEMB      11              0.0000000000
      1405        11  POPC      C210            7.7097018964      -12.0379187336        7.6155630989  MEMB      11              0.0000000000
      1406        11  POPC      H101            6.8284348449      -12.2479984785        8.2394503017  MEMB      11              0.0000000000
      1407        11  POPC      C211            8.5802250836      -13.2701996158        7.3041637632  MEMB      11              0.0000000000
      1408        11  POPC      H11R            9.1386770457      -13.5973201050        8.2071833291  MEMB      11              0.0000000000
      1409        11  POPC      H11S            9.2945156592      -13.0956434516        6.4713131380  MEMB      11              0.0000000000
      1410        11  POPC      C212            7.6926409817      -14.4089803493        6.8468872888  MEMB      11              0.0000000000
      1411        11  POPC      H12R            6.7802376042      -14.4753892189        7.4773088212  MEMB      11              0.0000000000
      1412        11  POPC      H12S            8.2033335032      -15.3949590335        6.8837664071  MEMB      11              0.0000000000
      1413        11  POPC      C213            6.9878896436      -14.2536636193        5.4250486090  MEMB      11              0.0000000000
      1414        11  POPC      H13R            6.3745435194      -13.3299066715        5.4943350710  MEMB      11              0.0000000000
      1415        11  POPC      H13S            6.3773378509      -15.1572562259        5.2127564651  MEMB      11              0.0000000000
      1416        11  POPC      C214            7.9793244733      -14.0274509234        4.2291333024  MEMB      11              0.0000000000
      1417        11  POPC      H14R            8.7234097558      -14.8524589069        4.2336133904  MEMB      11              0.0000000000
      1418        11  POPC      H14S            8.3790369756      -12.9910944930        4.2518566880  MEMB      11              0.0000000000
      1419        11  POPC      C215            7.0424821327      -14.1750669205        3.0137827359  MEMB      11              0.0000000000
      1420        11  POPC      H15R            6.2297441987      -13.4322057973        3.1618893551  MEMB      11              0.0000000000
      1421        11  POPC      H15S            6.5999345249      -15.1878383537        2.9007943177  MEMB      11              0.0000000000
      1422        11  POPC      C216            7.7042065647      -13.7524021122        1.7146541227  MEMB      11              0.0000000000
      1423        11  POPC      H16R            8.5386526025      -14.4531326765        1.4978663716  MEMB      11              0.0000000000
      1424        11  POPC      H16S            8.1991766478      -12.7578371214        1.7275420891  MEMB      11              0.0000000000
      1425        11  POPC      C217            6.7892706222      -13.7861439443        0.4999418774  MEMB      11              0.0000000000
      1426        11  POPC      H17R            5.9408839809      -13.1135940142        0.7494160917  MEMB      11              0.0000000000
      1427        11  POPC      H17S            6.4300395135      -14.8196729217        0.3073496481  MEMB      11              0.0000000000
      1428        11  POPC      C218            7.5123121472      -13.2274531296       -0.8434784435  MEMB      11              0.0000000000
      1429        11  POPC      H18R            6.8312294917      -13.2977497005       -1.7184102915  MEMB      11              0.0000000000
      1430        11  POPC      H18S            8.3154182823      -13.9250349559       -1.1639784377  MEMB      11              0.0000000000
      1431        11  POPC      H18T            7.9447534631      -12.2041744866       -0.8287621776  MEMB      11              0.0000000000
      1432        11  POPC      C33            12.0295390749      -14.3331658973       10.0188230608  MEMB      11              0.0000000000
      1433        11  POPC      H3X            13.0595740671      -14.2099242802       10.4165167241  MEMB      11              0.0000000000
      1434        11  POPC      H3Y            11.5473828687      -13.3348808864        9.9462046714  MEMB      11              0.0000000000
      1435        11  POPC      C34            12.0597828495      -14.8632253418        8.5842423649  MEMB      11              0.0000000000
      1436        11  POPC      H4X            11.0864491609      -14.7820044708        8.0547651353  MEMB      11              0.0000000000
      1437        11  POPC      H4Y            12.4326358513      -15.9082297894        8.6414021224  MEMB      11              0.0000000000
      1438        11  POPC      C35            12.9792929671      -13.9855031721        7.7575543575  MEMB      11              0.0000000000
      1439        11  POPC      H5X            14.0241087827      -14.2663351107        8.0101686049  MEMB      11              0.0000000000
      1440        11  POPC      H5Y            12.8545951584      -12.9423197936        8.1188583119  MEMB      11              0.0000000000
      1441        11  POPC      C36            12.7432129011      -14.1965325421        6.2562520513  MEMB      11              0.0000000000
      1442        11  POPC      H6X            11.7466323673      -13.8113786973        5.9516134890  MEMB      11              0.0000000000
      1443        11  POPC      H6Y            12.7266677744      -15.2929189188        6.0774106924  MEMB      11              0.0000000000
      1444        11  POPC      C37            13.8604847561      -13.6270634970        5.4622053739  MEMB      11              0.0000000000
      1445        11  POPC      H7X            14.8057860593      -14.0203929348        5.8935043280  MEMB      11              0.0000000000
      1446        11  POPC      H7Y            13.8087103666      -12.5217755454        5.5620993334  MEMB      11              0.0000000000
      1447        11  POPC      C38            13.7539937492      -13.9291600118        3.9783130065  MEMB      11              0.0000000000
      1448        11  POPC      H8X            13.6895396635      -15.0375849413        3.9388074127  MEMB      11              0.0000000000
      1449        11  POPC      H8Y            14.6800390816      -13.5951857687        3.4633153445  MEMB      11              0.0000000000
      1450        11  POPC      C39            12.5120237314      -13.4670348875        3.2733685931  MEMB      11              0.0000000000
      1451        11  POPC      H9X            11.6616397954      -14.1167855428        3.5716848153  MEMB      11              0.0000000000
      1452        11  POPC      H9Y            12.5737197778      -13.5790666564        2.1697547746  MEMB      11              0.0000000000
      1453        11  POPC      C310           12.0883767309      -12.0068640909        3.5386281870  MEMB      11              0.0000000000
      1454        11  POPC      H10X           12.9094726421      -11.2588538109        3.5140698548  MEMB      11              0.0000000000
      1455        11  POPC      H10Y           11.6617967583      -12.0326975402        4.5641439543  MEMB      11              0.0000000000
      1456        11  POPC      C311           10.9007004030      -11.4535799609        2.6195738112  MEMB      11              0.0000000000
      1457        11  POPC      H11X           10.6950490302      -10.4028272826        2.9161322136  MEMB      11              0.0000000000
      1458        11  POPC      H11Y            9.9755214281      -12.0538611829        2.7538390868  MEMB      11              0.0000000000
      1459        11  POPC      C312           11.3239930581      -11.3878081621        1.1050407839  MEMB      11              0.0000000000
      1460        11  POPC      H12X           10.3428186709      -11.2534674473        0.6014839450  MEMB      11              0.0000000000
      1461        11  POPC      H12Y           11.6806856109      -12.3809163934        0.7574380212  MEMB      11              0.0000000000
      1462        11  POPC      C313           12.4267027488      -10.3463987603        0.7676351845  MEMB      11              0.0000000000
      1463        11  POPC      H13X           12.8016129826      -10.4619613832       -0.2717912793  MEMB      11              0.0000000000
      1464        11  POPC      H13Y           13.2400599293      -10.5446724718        1.4980177591  MEMB      11              0.0000000000
      1465        11  POPC      C314           11.9752734893       -8.9041865365        0.9004252646  MEMB      11              0.0000000000
      1466        11  POPC      H14X           12.8147518668       -8.2237203082        0.6424300218  MEMB      11              0.0000000000
      1467        11  POPC      H14Y           11.8041264640       -8.8465908228        1.9966531734  MEMB      11              0.0000000000
      1468        11  POPC      C315           10.8468315938       -8.5402650484       -0.0103426641  MEMB      11              0.0000000000
      1469        11  POPC      H15X           10.6204672564       -7.4703332248        0.1854284573  MEMB      11              0.0000000000
      1470        11  POPC      H15Y            9.9814412554       -9.0262387221        0.4889073234  MEMB      11              0.0000000000
      1471        11  POPC      C316           10.9320033856       -8.7680442322       -1.5211077369  MEMB      11              0.0000000000
      1472        11  POPC      H16X           11.7458171848       -8.1399054310       -1.9423797887  MEMB      11              0.0000000000
      1473        11  POPC      H16Y            9.9416626122       -8.4442016854       -1.9066879983  MEMB      11              0.0000000000
      1474        11  POPC      H16Z           11.1324796102       -9.8386039224       -1.7402722996  MEMB      11              0.0000000000
      1475        12  POPC      N               0.0693862877      -15.4952967454       20.7794867926  MEMB      12              0.0000000000
      1476        12  POPC      C12             1.3565350432      -14.6124497434       20.4561187470  MEMB      12              0.0000000000
      1477        12  POPC      H12A            1.7701894287      -14.3732329009       21.4246564516  MEMB      12              0.0000000000
      1478        12  POPC      H12B            0.9228746245      -13.7069607872       20.0580879840  MEMB      12              0.0000000000
      1479        12  POPC      C13            -0.6044707174      -14.9561052086       22.0068373751  MEMB      12              0.0000000000
      1480        12  POPC      H13A            0.0251199547      -15.0737729822       22.8764175255  MEMB      12              0.0000000000
      1481        12  POPC      H13B           -0.9313295066      -13.9386452026       21.8508295326  MEMB      12              0.0000000000
      1482        12  POPC      H13C           -1.4598604827      -15.6095145058       22.0949539275  MEMB      12              0.0000000000
      1483        12  POPC      C14            -0.8455104813      -15.4062419822       19.6331406503  MEMB      12              0.0000000000
      1484        12  POPC      H14A           -1.2745796093      -14.4191792670       19.7226218062  MEMB      12              0.0000000000
      1485        12  POPC      H14B           -0.2989412329      -15.4485429585       18.7026178375  MEMB      12              0.0000000000
      1486        12  POPC      H14C           -1.6447314277      -16.1324899595       19.6476322546  MEMB      12              0.0000000000
      1487        12  POPC      C15             0.5477340510      -16.8769421916       21.0072288585  MEMB      12              0.0000000000
      1488        12  POPC      H15A            1.0605114193      -17.1313222557       20.0913958108  MEMB      12              0.0000000000
      1489        12  POPC      H15B           -0.2419117462      -17.5815098774       21.2227372966  MEMB      12              0.0000000000
      1490        12  POPC      H15C            1.2412759414      -16.8290561223       21.8337314605  MEMB      12              0.0000000000
      1491        12  POPC      C11             2.5089731645      -15.2045561600       19.6273490070  MEMB      12              0.0000000000
      1492        12  POPC      H11A            3.0101135641      -15.9846258391       20.2394524993  MEMB      12              0.0000000000
      1493        12  POPC      H11B            3.2542000221      -14.4309253169       19.3437062894  MEMB      12              0.0000000000
      1494        12  POPC      P               2.0238572952      -15.2664335691       17.0991360721  MEMB      12              0.0000000000
      1495        12  POPC      O13             3.0300260801      -14.1668830230       16.8415158594  MEMB      12              0.0000000000
      1496        12  POPC      O14             0.6060084323      -14.8479750656       16.9415452772  MEMB      12              0.0000000000
      1497        12  POPC      O12             2.1024589146      -15.9534646163       18.5453985615  MEMB      12              0.0000000000
      1498        12  POPC      O11             2.1751504383      -16.4067119908       16.0622428040  MEMB      12              0.0000000000
      1499        12  POPC      C1              0.9608097400      -16.9734692803       15.4891856862  MEMB      12              0.0000000000
      1500        12  POPC      HA              0.5582240821      -16.3371209300       14.6722974190  MEMB      12              0.0000000000
      1501        12  POPC      HB              0.0817763523      -16.9689700391       16.1685980274  MEMB      12              0.0000000000
      1502        12  POPC      C2              1.0346297531      -18.4165433528       14.9721270637  MEMB      12              0.0000000000
      1503        12  POPC      HS              1.2763550780      -19.0381853963       15.8606374343  MEMB      12              0.0000000000
      1504        12  POPC      O21             1.9893393513      -18.5778221028       13.8245609281  MEMB      12              0.0000000000
      1505        12  POPC      C21             3.2924166358      -18.5794717644       14.1381576102  MEMB      12              0.0000000000
      1506        12  POPC      O22             3.8096879830      -18.3567419703       15.1807906625  MEMB      12              0.0000000000
      1507        12  POPC      C22             4.0646006812      -19.0482718001       12.8766951537  MEMB      12              0.0000000000
      1508        12  POPC      H2R             3.4841454126      -19.3664847536       11.9844322624  MEMB      12              0.0000000000
      1509        12  POPC      H2S             4.7155368348      -19.9113402027       13.1330468098  MEMB      12              0.0000000000
      1510        12  POPC      C3             -0.3342411793      -18.8748887277       14.4768393533  MEMB      12              0.0000000000
      1511        12  POPC      HX             -1.0206750951      -18.6406113712       15.3184116813  MEMB      12              0.0000000000
      1512        12  POPC      HY             -0.2748921263      -19.9787973692       14.3664571345  MEMB      12              0.0000000000
      1513        12  POPC      O31            -0.5582783770      -18.2057879081       13.2167797778  MEMB      12              0.0000000000
      1514        12  POPC      C31            -1.6560235082      -17.5041975656       13.0981303453  MEMB      12              0.0000000000
      1515        12  POPC      O32            -2.4489778125      -17.2705895964       14.0062105617  MEMB      12              0.0000000000
      1516        12  POPC      C32            -1.6520715066      -16.7650356541       11.6514190755  MEMB      12              0.0000000000
      1517        12  POPC      H2X            -1.6181025241      -15.6655142810       11.8070459093  MEMB      12              0.0000000000
      1518        12  POPC      H2Y            -2.5201417878      -17.0711060639       11.0292487731  MEMB      12              0.0000000000
      1519        12  POPC      C23             4.9273476875      -17.7897873573       12.5945893645  MEMB      12              0.0000000000
      1520        12  POPC      H3R             5.8138329183      -18.0679718272       11.9854274502  MEMB      12              0.0000000000
      1521        12  POPC      H3S             5.2991655971      -17.3206532838       13.5305304838  MEMB      12              0.0000000000
      1522        12  POPC      C24             4.2240970894      -16.6437482878       11.9226845740  MEMB      12              0.0000000000
      1523        12  POPC      H4R             3.5452168480      -17.0566873210       11.1462032125  MEMB      12              0.0000000000
      1524        12  POPC      H4S             4.9741894608      -16.1337897491       11.2811049860  MEMB      12              0.0000000000
      1525        12  POPC      C25             3.6954093071      -15.5901078234       12.8619966758  MEMB      12              0.0000000000
      1526        12  POPC      H5R             4.4209759604      -15.3434046683       13.6663673287  MEMB      12              0.0000000000
      1527        12  POPC      H5S             2.7666898511      -15.9676291125       13.3408275713  MEMB      12              0.0000000000
      1528        12  POPC      C26             3.2985842499      -14.3056760791       12.1032300881  MEMB      12              0.0000000000
      1529        12  POPC      H6R             4.1485879681      -14.2401897089       11.3908213735  MEMB      12              0.0000000000
      1530        12  POPC      H6S             3.2833769055      -13.3595949171       12.6854842771  MEMB      12              0.0000000000
      1531        12  POPC      C27             1.9533516738      -14.3593316313       11.4170384924  MEMB      12              0.0000000000
      1532        12  POPC      H7R             1.1178309620      -14.4206098969       12.1467446798  MEMB      12              0.0000000000
      1533        12  POPC      H7S             1.9313064296      -15.2612301092       10.7686451290  MEMB      12              0.0000000000
      1534        12  POPC      C28             1.8198740059      -13.1512215688       10.4242979508  MEMB      12              0.0000000000
      1535        12  POPC      H8R             2.2183615201      -12.2773413450       10.9827439305  MEMB      12              0.0000000000
      1536        12  POPC      H8S             0.7383261463      -12.9982988322       10.2213452530  MEMB      12              0.0000000000
      1537        12  POPC      C29             2.6155510378      -13.2488957879        9.1671268494  MEMB      12              0.0000000000
      1538        12  POPC      H91             3.6983238563      -13.1409850277        9.3282431850  MEMB      12              0.0000000000
      1539        12  POPC      C210            2.1905624341      -13.4799754871        7.9327587224  MEMB      12              0.0000000000
      1540        12  POPC      H101            2.9691785261      -13.7134743248        7.1916545310  MEMB      12              0.0000000000
      1541        12  POPC      C211            0.7806604204      -13.6701701515        7.4734040208  MEMB      12              0.0000000000
      1542        12  POPC      H11R            0.5740748341      -12.7432148681        6.8968655651  MEMB      12              0.0000000000
      1543        12  POPC      H11S            0.0702348685      -13.6832259837        8.3274799098  MEMB      12              0.0000000000
      1544        12  POPC      C212            0.3393007627      -14.8919648411        6.6632268932  MEMB      12              0.0000000000
      1545        12  POPC      H12R            0.4616858292      -15.7419779483        7.3680818291  MEMB      12              0.0000000000
      1546        12  POPC      H12S            1.0891814881      -14.9330609266        5.8445012509  MEMB      12              0.0000000000
      1547        12  POPC      C213           -1.1178202653      -14.8521191378        6.1920817122  MEMB      12              0.0000000000
      1548        12  POPC      H13R           -1.3051650821      -13.8439597328        5.7644870121  MEMB      12              0.0000000000
      1549        12  POPC      H13S           -1.8564338997      -14.9256956271        7.0187360525  MEMB      12              0.0000000000
      1550        12  POPC      C214           -1.2895091884      -16.0058517737        5.2463050327  MEMB      12              0.0000000000
      1551        12  POPC      H14R           -0.9094569720      -16.9986593323        5.5691276947  MEMB      12              0.0000000000
      1552        12  POPC      H14S           -0.6809618930      -15.9013462392        4.3226873650  MEMB      12              0.0000000000
      1553        12  POPC      C215           -2.7702231954      -16.1696432682        4.9698954615  MEMB      12              0.0000000000
      1554        12  POPC      H15R           -3.2384337677      -15.2432522878        4.5737901383  MEMB      12              0.0000000000
      1555        12  POPC      H15S           -3.3012495761      -16.4805411954        5.8949224783  MEMB      12              0.0000000000
      1556        12  POPC      C216           -3.0168866486      -17.3935839350        3.9432977583  MEMB      12              0.0000000000
      1557        12  POPC      H16R           -4.0950721272      -17.6616065025        3.9421039816  MEMB      12              0.0000000000
      1558        12  POPC      H16S           -2.4328068707      -18.2435910221        4.3564074768  MEMB      12              0.0000000000
      1559        12  POPC      C217           -2.6443637135      -17.0617293347        2.4903282859  MEMB      12              0.0000000000
      1560        12  POPC      H17R           -1.6025584781      -16.6991192358        2.6225256425  MEMB      12              0.0000000000
      1561        12  POPC      H17S           -3.2546408670      -16.2382272058        2.0616937574  MEMB      12              0.0000000000
      1562        12  POPC      C218           -2.5979556124      -18.1593046815        1.3900638502  MEMB      12              0.0000000000
      1563        12  POPC      H18R           -2.0320968418      -17.8990520244        0.4700666454  MEMB      12              0.0000000000
      1564        12  POPC      H18S           -3.6403529627      -18.3370501766        1.0492774183  MEMB      12              0.0000000000
      1565        12  POPC      H18T           -2.0942897074      -19.0333953696        1.8554750258  MEMB      12              0.0000000000
      1566        12  POPC      C33            -0.3964416691      -17.1866076908       10.8079728478  MEMB      12              0.0000000000
      1567        12  POPC      H3X             0.5745726507      -17.1382856764       11.3456688157  MEMB      12              0.0000000000
      1568        12  POPC      H3Y            -0.3632648513      -16.4685754202        9.9608304382  MEMB      12              0.0000000000
      1569        12  POPC      C34            -0.4851297543      -18.6648840292       10.2973030294  MEMB      12              0.0000000000
      1570        12  POPC      H4X            -1.5282131734      -18.8521388667        9.9637863321  MEMB      12              0.0000000000
      1571        12  POPC      H4Y            -0.2022332671      -19.4135468806       11.0678839829  MEMB      12              0.0000000000
      1572        12  POPC      C35             0.5085740487      -18.9190561099        9.1257284474  MEMB      12              0.0000000000
      1573        12  POPC      H5X             0.3689012163      -18.2219680219        8.2719832754  MEMB      12              0.0000000000
      1574        12  POPC      H5Y             0.2169760501      -19.9258561975        8.7574291107  MEMB      12              0.0000000000
      1575        12  POPC      C36             1.9639946143      -18.9838897798        9.5110007040  MEMB      12              0.0000000000
      1576        12  POPC      H6X             2.1948106925      -19.8520355168       10.1647344527  MEMB      12              0.0000000000
      1577        12  POPC      H6Y             2.2395502960      -18.1049115262       10.1321176841  MEMB      12              0.0000000000
      1578        12  POPC      C37             2.8663410939      -19.0132658276        8.2808137177  MEMB      12              0.0000000000
      1579        12  POPC      H7X             2.3411712905      -19.5585188532        7.4676613120  MEMB      12              0.0000000000
      1580        12  POPC      H7Y             3.7975295474      -19.5852288579        8.4809819974  MEMB      12              0.0000000000
      1581        12  POPC      C38             3.3552865949      -17.7005430040        7.7763365907  MEMB      12              0.0000000000
      1582        12  POPC      H8X             4.1596642520      -17.2711205887        8.4110754538  MEMB      12              0.0000000000
      1583        12  POPC      H8Y             2.4004210990      -17.1351086365        7.8295983387  MEMB      12              0.0000000000
      1584        12  POPC      C39             3.8847528598      -17.6013031122        6.2999609643  MEMB      12              0.0000000000
      1585        12  POPC      H9X             3.0369883062      -18.1088907399        5.7920519623  MEMB      12              0.0000000000
      1586        12  POPC      H9Y             4.7158687621      -18.3255308972        6.1618984768  MEMB      12              0.0000000000
      1587        12  POPC      C310            4.0230500152      -16.2432494838        5.6367577666  MEMB      12              0.0000000000
      1588        12  POPC      H10X            5.0940677384      -16.1338353922        5.3624026699  MEMB      12              0.0000000000
      1589        12  POPC      H10Y            3.8451101243      -15.4980793912        6.4413563544  MEMB      12              0.0000000000
      1590        12  POPC      C311            3.2729641530      -16.0440413460        4.3318560750  MEMB      12              0.0000000000
      1591        12  POPC      H11X            2.2087862263      -16.2691663374        4.5580526832  MEMB      12              0.0000000000
      1592        12  POPC      H11Y            3.6912685085      -16.7396014369        3.5732136212  MEMB      12              0.0000000000
      1593        12  POPC      C312            3.2615038557      -14.6086223189        3.8825634929  MEMB      12              0.0000000000
      1594        12  POPC      H12X            4.2553663427      -14.1133654881        3.8467976555  MEMB      12              0.0000000000
      1595        12  POPC      H12Y            2.6264838474      -13.9493916787        4.5122343110  MEMB      12              0.0000000000
      1596        12  POPC      C313            2.8846881834      -14.5332173938        2.4622694301  MEMB      12              0.0000000000
      1597        12  POPC      H13X            3.5625638554      -15.2918989157        2.0159411589  MEMB      12              0.0000000000
      1598        12  POPC      H13Y            3.0790937640      -13.5263046303        2.0348890771  MEMB      12              0.0000000000
      1599        12  POPC      C314            1.5026462272      -15.0503017160        2.0830782261  MEMB      12              0.0000000000
      1600        12  POPC      H14X            0.7096953000      -14.7599644000        2.8050575511  MEMB      12              0.0000000000
      1601        12  POPC      H14Y            1.6273611852      -16.1541614959        2.0669293234  MEMB      12              0.0000000000
      1602        12  POPC      C315            0.8168457119      -14.6433929398        0.7595864266  MEMB      12              0.0000000000
      1603        12  POPC      H15X            0.3877511311      -13.6476775710        1.0019719651  MEMB      12              0.0000000000
      1604        12  POPC      H15Y           -0.0687659532      -15.2865310796        0.5688364924  MEMB      12              0.0000000000
      1605        12  POPC      C316            1.7740572911      -14.5907067433       -0.4804823839  MEMB      12              0.0000000000
      1606        12  POPC      H16X            1.2745133092      -13.9700951581       -1.2548325725  MEMB      12              0.0000000000
      1607        12  POPC      H16Y            2.0780068028      -15.6062451579       -0.8130763518  MEMB      12              0.0000000000
      1608        12  POPC      H16Z            2.7187169568      -14.0920053416       -0.1751366585  MEMB      12              0.0000000000
      1609        13  POPC      N             -12.1077314761      -10.2668459485       20.2777287570  MEMB      13              0.0000000000
      1610        13  POPC      C12           -12.2879122145      -10.2631589460       18.7726144814  MEMB      13              0.0000000000
      1611        13  POPC      H12A          -11.3756232709      -10.6184611623       18.3166657393  MEMB      13              0.0000000000
      1612        13  POPC      H12B          -12.4857125628       -9.2402167097       18.4882483669  MEMB      13              0.0000000000
      1613        13  POPC      C13           -11.2589876530      -11.4772266210       20.5774428825  MEMB      13              0.0000000000
      1614        13  POPC      H13A          -11.8627715792      -12.3709525819       20.5217762730  MEMB      13              0.0000000000
      1615        13  POPC      H13B          -10.3843025145      -11.5115989457       19.9448731873  MEMB      13              0.0000000000
      1616        13  POPC      H13C          -10.9755962073      -11.2439621360       21.5931578509  MEMB      13              0.0000000000
      1617        13  POPC      C14           -11.3294921297       -9.0728216896       20.5996388361  MEMB      13              0.0000000000
      1618        13  POPC      H14A          -11.8695268341       -8.1457126520       20.4762247349  MEMB      13              0.0000000000
      1619        13  POPC      H14B          -11.0570390013       -9.2107640068       21.6355639592  MEMB      13              0.0000000000
      1620        13  POPC      H14C          -10.4297276104       -9.0318088295       20.0037008255  MEMB      13              0.0000000000
      1621        13  POPC      C15           -13.4338874066      -10.3219804175       21.1034954146  MEMB      13              0.0000000000
      1622        13  POPC      H15A          -13.8905550336      -11.2990899863       21.0477128110  MEMB      13              0.0000000000
      1623        13  POPC      H15B          -14.0460463581       -9.5009317692       20.7606535693  MEMB      13              0.0000000000
      1624        13  POPC      H15C          -13.3597688817      -10.2121521667       22.1753370336  MEMB      13              0.0000000000
      1625        13  POPC      C11           -13.4886343481      -11.0659110865       18.1633648755  MEMB      13              0.0000000000
      1626        13  POPC      H11A          -13.2775297692      -11.1126059389       17.0736055358  MEMB      13              0.0000000000
      1627        13  POPC      H11B          -14.4428864748      -10.5024563448       18.2423749776  MEMB      13              0.0000000000
      1628        13  POPC      P             -14.5169608601      -13.3547635466       17.9024507319  MEMB      13              0.0000000000
      1629        13  POPC      O13           -15.5950922017      -12.4687783004       17.3700022751  MEMB      13              0.0000000000
      1630        13  POPC      O14           -14.9436249924      -14.5553335520       18.6981199541  MEMB      13              0.0000000000
      1631        13  POPC      O12           -13.6284461715      -12.3732602823       18.7839642443  MEMB      13              0.0000000000
      1632        13  POPC      O11           -13.4445452969      -13.7911888170       16.7511775910  MEMB      13              0.0000000000
      1633        13  POPC      C1            -13.3806622518      -15.1650801985       16.2101717891  MEMB      13              0.0000000000
      1634        13  POPC      HA            -13.5475123756      -15.1804590497       15.1118797850  MEMB      13              0.0000000000
      1635        13  POPC      HB            -14.2468476287      -15.7269148439       16.6205202223  MEMB      13              0.0000000000
      1636        13  POPC      C2            -12.0623093562      -15.8711853906       16.5526231412  MEMB      13              0.0000000000
      1637        13  POPC      HS            -12.0619626569      -16.0251947557       17.6528966372  MEMB      13              0.0000000000
      1638        13  POPC      O21           -10.9759165627      -15.0384285110       16.0217369227  MEMB      13              0.0000000000
      1639        13  POPC      C21           -10.5096009390      -14.0809777926       16.8684641161  MEMB      13              0.0000000000
      1640        13  POPC      O22           -10.7146322815      -14.0333198576       18.0430554958  MEMB      13              0.0000000000
      1641        13  POPC      C22            -9.4176395237      -13.2972090134       16.1363808561  MEMB      13              0.0000000000
      1642        13  POPC      H2R            -9.0861567002      -13.8872155642       15.2552838372  MEMB      13              0.0000000000
      1643        13  POPC      H2S            -8.6215187061      -12.9995608531       16.8518655354  MEMB      13              0.0000000000
      1644        13  POPC      C3            -12.0670029002      -17.2844151626       15.8367023899  MEMB      13              0.0000000000
      1645        13  POPC      HX            -12.9887864134      -17.5937746465       16.3742271833  MEMB      13              0.0000000000
      1646        13  POPC      HY            -11.2428345587      -17.9933559180       16.0657664149  MEMB      13              0.0000000000
      1647        13  POPC      O31           -12.3235108974      -17.1658514162       14.4907191753  MEMB      13              0.0000000000
      1648        13  POPC      C31           -11.2629743818      -17.0362571229       13.7223591278  MEMB      13              0.0000000000
      1649        13  POPC      O32           -10.1221043249      -17.0813690556       14.0934073642  MEMB      13              0.0000000000
      1650        13  POPC      C32           -11.7718713928      -16.9661926994       12.3831861305  MEMB      13              0.0000000000
      1651        13  POPC      H2X           -12.3580154514      -17.8980322266       12.2334148599  MEMB      13              0.0000000000
      1652        13  POPC      H2Y           -10.9858756276      -16.9577960118       11.5980360181  MEMB      13              0.0000000000
      1653        13  POPC      C23            -9.8081475603      -11.9348166158       15.4689466555  MEMB      13              0.0000000000
      1654        13  POPC      H3R            -8.9306631976      -11.4198785550       15.0226501504  MEMB      13              0.0000000000
      1655        13  POPC      H3S           -10.0916821087      -11.2225181015       16.2730362525  MEMB      13              0.0000000000
      1656        13  POPC      C24           -10.8371266129      -12.0312858240       14.3974360452  MEMB      13              0.0000000000
      1657        13  POPC      H4R           -11.8077244715      -12.1873902434       14.9150191786  MEMB      13              0.0000000000
      1658        13  POPC      H4S           -10.7423980952      -12.7879246065       13.5894480393  MEMB      13              0.0000000000
      1659        13  POPC      C25           -11.1186951642      -10.6922536315       13.6905708550  MEMB      13              0.0000000000
      1660        13  POPC      H5R           -10.2343670757      -10.0197362713       13.6882387766  MEMB      13              0.0000000000
      1661        13  POPC      H5S           -12.0552469908      -10.2039638133       14.0351936526  MEMB      13              0.0000000000
      1662        13  POPC      C26           -11.3425978802      -10.8190531183       12.1582356080  MEMB      13              0.0000000000
      1663        13  POPC      H6R           -12.1989654076      -11.4991365753       11.9621679673  MEMB      13              0.0000000000
      1664        13  POPC      H6S           -10.4057581832      -11.1477488207       11.6596261769  MEMB      13              0.0000000000
      1665        13  POPC      C27           -11.8999289629       -9.5044571794       11.6752874463  MEMB      13              0.0000000000
      1666        13  POPC      H7R           -11.1361502327       -8.7277872024       11.8937974671  MEMB      13              0.0000000000
      1667        13  POPC      H7S           -12.8229173872       -9.2657151091       12.2457395840  MEMB      13              0.0000000000
      1668        13  POPC      C28           -12.1778846735       -9.4972998779       10.1818390751  MEMB      13              0.0000000000
      1669        13  POPC      H8R           -12.6494750627       -8.5232587700        9.9305073999  MEMB      13              0.0000000000
      1670        13  POPC      H8S           -12.8580225938      -10.3606794764       10.0196382509  MEMB      13              0.0000000000
      1671        13  POPC      C29           -10.9468732075       -9.4960822626        9.4005013716  MEMB      13              0.0000000000
      1672        13  POPC      H91           -10.3918270148       -8.5577316002        9.5468635727  MEMB      13              0.0000000000
      1673        13  POPC      C210          -10.6429282124      -10.4082692761        8.4789767670  MEMB      13              0.0000000000
      1674        13  POPC      H101           -9.6339820960      -10.2714408019        8.0626760134  MEMB      13              0.0000000000
      1675        13  POPC      C211          -11.3808674161      -11.6221100612        8.0242454403  MEMB      13              0.0000000000
      1676        13  POPC      H11R          -11.5686303920      -11.7434796228        6.9359740205  MEMB      13              0.0000000000
      1677        13  POPC      H11S          -12.4664875131      -11.4734114341        8.2076537564  MEMB      13              0.0000000000
      1678        13  POPC      C212          -10.8939113898      -12.9150506799        8.6007767044  MEMB      13              0.0000000000
      1679        13  POPC      H12R          -11.6000651183      -13.7702708744        8.5354598730  MEMB      13              0.0000000000
      1680        13  POPC      H12S          -10.7576522018      -12.8201247271        9.6992956876  MEMB      13              0.0000000000
      1681        13  POPC      C213           -9.4868533090      -13.3402334004        8.1265111763  MEMB      13              0.0000000000
      1682        13  POPC      H13R           -9.2748218325      -14.4122484046        8.3268795389  MEMB      13              0.0000000000
      1683        13  POPC      H13S           -8.8025527457      -12.7168269722        8.7408551500  MEMB      13              0.0000000000
      1684        13  POPC      C214           -9.1161416599      -12.9748666536        6.6406225812  MEMB      13              0.0000000000
      1685        13  POPC      H14R           -9.0004424320      -11.8699113059        6.6378056548  MEMB      13              0.0000000000
      1686        13  POPC      H14S           -9.8274895430      -13.3101778518        5.8558478276  MEMB      13              0.0000000000
      1687        13  POPC      C215           -7.7516508105      -13.6703489051        6.1844601300  MEMB      13              0.0000000000
      1688        13  POPC      H15R           -7.9852794964      -14.6966825453        5.8289639978  MEMB      13              0.0000000000
      1689        13  POPC      H15S           -7.0644982227      -13.6387798160        7.0568968270  MEMB      13              0.0000000000
      1690        13  POPC      C216           -7.1563534964      -13.1461388767        4.8476476338  MEMB      13              0.0000000000
      1691        13  POPC      H16R           -6.1481668514      -13.6009820681        4.7427744121  MEMB      13              0.0000000000
      1692        13  POPC      H16S           -7.0938045508      -12.0565176266        5.0553357243  MEMB      13              0.0000000000
      1693        13  POPC      C217           -8.0548489782      -13.4865969709        3.6191129658  MEMB      13              0.0000000000
      1694        13  POPC      H17R           -9.0876966735      -13.0822856765        3.6829791776  MEMB      13              0.0000000000
      1695        13  POPC      H17S           -8.1927592200      -14.5885056094        3.5859601037  MEMB      13              0.0000000000
      1696        13  POPC      C218           -7.4822862791      -13.0492730381        2.3061011484  MEMB      13              0.0000000000
      1697        13  POPC      H18R           -6.3779858777      -12.9913113121        2.1989468644  MEMB      13              0.0000000000
      1698        13  POPC      H18S           -7.7926546040      -12.0030364881        2.0978191664  MEMB      13              0.0000000000
      1699        13  POPC      H18T           -7.8958340050      -13.7311299680        1.5325571757  MEMB      13              0.0000000000
      1700        13  POPC      C33           -12.5833707477      -15.6592813359       12.2460819000  MEMB      13              0.0000000000
      1701        13  POPC      H3X           -12.1045671689      -14.7146624101       12.5818846388  MEMB      13              0.0000000000
      1702        13  POPC      H3Y           -13.4560368730      -15.7542675979       12.9270756232  MEMB      13              0.0000000000
      1703        13  POPC      C34           -13.1579005373      -15.4898949731       10.8597092456  MEMB      13              0.0000000000
      1704        13  POPC      H4X           -12.3618880657      -15.7251309260       10.1212320538  MEMB      13              0.0000000000
      1705        13  POPC      H4Y           -13.5720039388      -14.4652228009       10.7461910924  MEMB      13              0.0000000000
      1706        13  POPC      C35           -14.2959223966      -16.4214672406       10.6158730462  MEMB      13              0.0000000000
      1707        13  POPC      H5X           -13.9155229104      -17.3963149171       10.9890878319  MEMB      13              0.0000000000
      1708        13  POPC      H5Y           -14.4027209395      -16.4611130826        9.5107290674  MEMB      13              0.0000000000
      1709        13  POPC      C36           -15.6636931015      -16.1491324909       11.1689382631  MEMB      13              0.0000000000
      1710        13  POPC      H6X           -15.6398998877      -15.7169236230       12.1921443384  MEMB      13              0.0000000000
      1711        13  POPC      H6Y           -16.2698893631      -17.0767546245       11.2487172617  MEMB      13              0.0000000000
      1712        13  POPC      C37           -16.5520236463      -15.2659804154       10.2625742330  MEMB      13              0.0000000000
      1713        13  POPC      H7X           -16.1120176303      -14.2458647423       10.2536646599  MEMB      13              0.0000000000
      1714        13  POPC      H7Y           -17.5684960868      -15.2185440597       10.7085053491  MEMB      13              0.0000000000
      1715        13  POPC      C38           -16.5991972329      -15.6080254128        8.7858131027  MEMB      13              0.0000000000
      1716        13  POPC      H8X           -17.6937896438      -15.5755917558        8.5983660964  MEMB      13              0.0000000000
      1717        13  POPC      H8Y           -16.2849455155      -16.6598429409        8.6147975292  MEMB      13              0.0000000000
      1718        13  POPC      C39           -15.8638069873      -14.7163847781        7.7694481831  MEMB      13              0.0000000000
      1719        13  POPC      H9X           -15.7367127158      -15.3076172076        6.8374548619  MEMB      13              0.0000000000
      1720        13  POPC      H9Y           -14.8549194262      -14.4521311634        8.1523807542  MEMB      13              0.0000000000
      1721        13  POPC      C310          -16.5997908813      -13.3684167130        7.3585206389  MEMB      13              0.0000000000
      1722        13  POPC      H10X          -16.8039901301      -12.9452534215        8.3652759101  MEMB      13              0.0000000000
      1723        13  POPC      H10Y          -17.4614580951      -13.4824120152        6.6665269682  MEMB      13              0.0000000000
      1724        13  POPC      C311          -15.7677347223      -12.3523725272        6.6227076239  MEMB      13              0.0000000000
      1725        13  POPC      H11X          -14.7904175347      -12.1350430606        7.1043091885  MEMB      13              0.0000000000
      1726        13  POPC      H11Y          -16.2205206762      -11.3472746362        6.4845615101  MEMB      13              0.0000000000
      1727        13  POPC      C312          -15.4036809253      -12.7822463393        5.1740925135  MEMB      13              0.0000000000
      1728        13  POPC      H12X          -16.3267352971      -13.1481887126        4.6757176198  MEMB      13              0.0000000000
      1729        13  POPC      H12Y          -14.7603457796      -13.6768560041        5.3159178209  MEMB      13              0.0000000000
      1730        13  POPC      C313          -14.8418255210      -11.7578983941        4.1778584541  MEMB      13              0.0000000000
      1731        13  POPC      H13X          -14.0047873445      -11.2612217444        4.7135820848  MEMB      13              0.0000000000
      1732        13  POPC      H13Y          -15.6665009597      -11.0601816803        3.9181998699  MEMB      13              0.0000000000
      1733        13  POPC      C314          -14.2987183911      -12.3306479564        2.7924535186  MEMB      13              0.0000000000
      1734        13  POPC      H14X          -14.0323674514      -11.5349615058        2.0642630694  MEMB      13              0.0000000000
      1735        13  POPC      H14Y          -15.1499356387      -12.9277752031        2.4010596424  MEMB      13              0.0000000000
      1736        13  POPC      C315          -13.1258518701      -13.2685275337        2.8316442333  MEMB      13              0.0000000000
      1737        13  POPC      H15X          -13.3306966001      -14.1973521965        3.4057904730  MEMB      13              0.0000000000
      1738        13  POPC      H15Y          -12.3602574767      -12.8283563372        3.5057625817  MEMB      13              0.0000000000
      1739        13  POPC      C316          -12.4605916300      -13.3829795605        1.4665719537  MEMB      13              0.0000000000
      1740        13  POPC      H16X          -12.4634458230      -12.4121264742        0.9264265269  MEMB      13              0.0000000000
      1741        13  POPC      H16Y          -13.0859576090      -14.1042614886        0.8982490365  MEMB      13              0.0000000000
      1742        13  POPC      H16Z          -11.4537662590      -13.8062855272        1.6701299861  MEMB      13              0.0000000000
      1743        14  POPC      N              -7.9478409202       17.9663751471       17.6183856498  MEMB      14              0.0000000000
      1744        14  POPC      C12            -7.8334303515       16.4547907821       17.8479627220  MEMB      14              0.0000000000
      1745        14  POPC      H12A           -6.8947255459       16.0788112745       17.4686571432  MEMB      14              0.0000000000
      1746        14  POPC      H12B           -8.4982830116       15.9789145629       17.1423334216  MEMB      14              0.0000000000
      1747        14  POPC      C13            -6.9232834753       18.7135362610       18.4391984264  MEMB      14              0.0000000000
      1748        14  POPC      H13A           -6.0160874888       18.2974560812       18.0265571737  MEMB      14              0.0000000000
      1749        14  POPC      H13B           -7.0465212552       19.7839582908       18.3656541616  MEMB      14              0.0000000000
      1750        14  POPC      H13C           -6.8594522509       18.3866015139       19.4665441951  MEMB      14              0.0000000000
      1751        14  POPC      C14            -7.6876308042       18.3254135600       16.2003637831  MEMB      14              0.0000000000
      1752        14  POPC      H14A           -8.4291187603       17.7882009631       15.6276526853  MEMB      14              0.0000000000
      1753        14  POPC      H14B           -8.0328172141       19.3460956013       16.1265100869  MEMB      14              0.0000000000
      1754        14  POPC      H14C           -6.6402039475       18.2227397893       15.9579695490  MEMB      14              0.0000000000
      1755        14  POPC      C15            -9.2507565836       18.4383237171       18.1623778121  MEMB      14              0.0000000000
      1756        14  POPC      H15A           -9.3868934571       18.1795817739       19.2020505927  MEMB      14              0.0000000000
      1757        14  POPC      H15B          -10.0772791816       17.9935333325       17.6281291858  MEMB      14              0.0000000000
      1758        14  POPC      H15C           -9.2859691787       19.5122946360       18.0539971605  MEMB      14              0.0000000000
      1759        14  POPC      C11            -8.1213389855       15.8945296999       19.2777068656  MEMB      14              0.0000000000
      1760        14  POPC      H11A           -8.3553545059       14.8131005731       19.1773631394  MEMB      14              0.0000000000
      1761        14  POPC      H11B           -9.0083762431       16.4256412716       19.6844086267  MEMB      14              0.0000000000
      1762        14  POPC      P              -5.8712395544       15.1146025354       20.3710696272  MEMB      14              0.0000000000
      1763        14  POPC      O13            -6.3215133655       13.6835362780       20.5134159257  MEMB      14              0.0000000000
      1764        14  POPC      O14            -5.0303278344       15.6102572724       21.4808279291  MEMB      14              0.0000000000
      1765        14  POPC      O12            -7.0787538667       16.1242491274       20.1797868422  MEMB      14              0.0000000000
      1766        14  POPC      O11            -5.2375926860       15.2396684194       18.9089044405  MEMB      14              0.0000000000
      1767        14  POPC      C1             -3.8755136315       15.6667573872       18.9161107432  MEMB      14              0.0000000000
      1768        14  POPC      HA             -3.3251873132       15.1305079273       19.7185436355  MEMB      14              0.0000000000
      1769        14  POPC      HB             -3.8540606242       16.7337091795       19.2251002552  MEMB      14              0.0000000000
      1770        14  POPC      C2             -3.1425311382       15.6612160269       17.5432698402  MEMB      14              0.0000000000
      1771        14  POPC      HS             -2.1978331521       16.2297731152       17.6796890899  MEMB      14              0.0000000000
      1772        14  POPC      O21            -3.9158196004       16.4356185498       16.6384992595  MEMB      14              0.0000000000
      1773        14  POPC      C21            -3.2759302328       16.9106197168       15.5635670240  MEMB      14              0.0000000000
      1774        14  POPC      O22            -2.1329248288       16.6378358194       15.2699044655  MEMB      14              0.0000000000
      1775        14  POPC      C22            -4.2394079134       17.9068598060       14.8115445282  MEMB      14              0.0000000000
      1776        14  POPC      H2R            -4.4938137202       18.7091177417       15.5367901588  MEMB      14              0.0000000000
      1777        14  POPC      H2S            -5.0757628809       17.2692477160       14.4533798655  MEMB      14              0.0000000000
      1778        14  POPC      C3             -2.9345343359       14.2098857034       17.0610718823  MEMB      14              0.0000000000
      1779        14  POPC      HX             -2.2198154755       13.9306383218       17.8645137937  MEMB      14              0.0000000000
      1780        14  POPC      HY             -2.5198842435       14.1582762478       16.0316433917  MEMB      14              0.0000000000
      1781        14  POPC      O31            -4.1924747009       13.4740813918       17.1179001797  MEMB      14              0.0000000000
      1782        14  POPC      C31            -4.2614784059       12.3589675208       16.3812521823  MEMB      14              0.0000000000
      1783        14  POPC      O32            -3.3929806523       11.8486321200       15.7514407203  MEMB      14              0.0000000000
      1784        14  POPC      C32            -5.7074688993       11.9230696348       16.4170959756  MEMB      14              0.0000000000
      1785        14  POPC      H2X            -5.9794759894       11.6470483544       17.4583189751  MEMB      14              0.0000000000
      1786        14  POPC      H2Y            -5.7398839291       11.0285774567       15.7589517107  MEMB      14              0.0000000000
      1787        14  POPC      C23            -3.5611829124       18.6084183472       13.6222196306  MEMB      14              0.0000000000
      1788        14  POPC      H3R            -3.4871718522       17.8061824348       12.8571961632  MEMB      14              0.0000000000
      1789        14  POPC      H3S            -2.6908519877       19.2845800081       13.7623998490  MEMB      14              0.0000000000
      1790        14  POPC      C24            -4.5511939394       19.5787941611       12.9474631827  MEMB      14              0.0000000000
      1791        14  POPC      H4R            -4.4595351546       20.4901795783       13.5761889409  MEMB      14              0.0000000000
      1792        14  POPC      H4S            -5.6201400253       19.2867776025       13.0274741522  MEMB      14              0.0000000000
      1793        14  POPC      C25            -4.1845603161       20.0764205156       11.5113845664  MEMB      14              0.0000000000
      1794        14  POPC      H5R            -3.0984032047       20.2656467618       11.6484141135  MEMB      14              0.0000000000
      1795        14  POPC      H5S            -4.7881350646       20.9743838816       11.2590343102  MEMB      14              0.0000000000
      1796        14  POPC      C26            -4.5289315411       18.9894422505       10.4494283978  MEMB      14              0.0000000000
      1797        14  POPC      H6R            -5.5731536332       18.6225934284       10.5460902901  MEMB      14              0.0000000000
      1798        14  POPC      H6S            -4.0103767672       18.0758428917       10.8110338224  MEMB      14              0.0000000000
      1799        14  POPC      C27            -4.0328456459       19.3624520447        9.0554330537  MEMB      14              0.0000000000
      1800        14  POPC      H7R            -4.0082824693       18.4514539999        8.4199805211  MEMB      14              0.0000000000
      1801        14  POPC      H7S            -2.9762446728       19.6166426716        9.2863058201  MEMB      14              0.0000000000
      1802        14  POPC      C28            -4.7322638693       20.4702680493        8.3447844815  MEMB      14              0.0000000000
      1803        14  POPC      H8R            -4.4402603585       20.3840678213        7.2763166588  MEMB      14              0.0000000000
      1804        14  POPC      H8S            -4.3890637893       21.4605761840        8.7133283938  MEMB      14              0.0000000000
      1805        14  POPC      C29            -6.2436548508       20.4107682049        8.4852921767  MEMB      14              0.0000000000
      1806        14  POPC      H91            -6.6360701876       20.4695690474        9.5112315789  MEMB      14              0.0000000000
      1807        14  POPC      C210           -7.2895358987       20.2307889651        7.5579296892  MEMB      14              0.0000000000
      1808        14  POPC      H101           -8.3269526080       20.2298707809        7.9236702110  MEMB      14              0.0000000000
      1809        14  POPC      C211           -7.1545253304       20.0652365469        6.0694130795  MEMB      14              0.0000000000
      1810        14  POPC      H11R           -6.4771656499       20.8068768919        5.5945716078  MEMB      14              0.0000000000
      1811        14  POPC      H11S           -8.1409509807       20.2225886815        5.5830744607  MEMB      14              0.0000000000
      1812        14  POPC      C212           -6.6854608102       18.6493340850        5.6947640639  MEMB      14              0.0000000000
      1813        14  POPC      H12R           -7.6048592416       18.1217281041        5.3621090653  MEMB      14              0.0000000000
      1814        14  POPC      H12S           -6.2259324972       18.0957176783        6.5413242660  MEMB      14              0.0000000000
      1815        14  POPC      C213           -5.8849629314       18.5466070227        4.3888458913  MEMB      14              0.0000000000
      1816        14  POPC      H13R           -6.5423495975       18.9671593410        3.5980866313  MEMB      14              0.0000000000
      1817        14  POPC      H13S           -5.6371739392       17.4767296212        4.2206675885  MEMB      14              0.0000000000
      1818        14  POPC      C214           -4.5052666899       19.2414235042        4.5710214865  MEMB      14              0.0000000000
      1819        14  POPC      H14R           -4.1592565840       18.7447683235        5.5026507353  MEMB      14              0.0000000000
      1820        14  POPC      H14S           -4.4466488469       20.3407679087        4.7204427125  MEMB      14              0.0000000000
      1821        14  POPC      C215           -3.5239909513       18.9823581582        3.4063232526  MEMB      14              0.0000000000
      1822        14  POPC      H15R           -3.5836264846       17.8844975410        3.2467403268  MEMB      14              0.0000000000
      1823        14  POPC      H15S           -2.5373103856       19.3059007681        3.8014212551  MEMB      14              0.0000000000
      1824        14  POPC      C216           -3.7915769212       19.7748259164        2.1335502505  MEMB      14              0.0000000000
      1825        14  POPC      H16R           -4.1518501138       20.8226433790        2.2148076843  MEMB      14              0.0000000000
      1826        14  POPC      H16S           -4.5628374579       19.2099805777        1.5674870886  MEMB      14              0.0000000000
      1827        14  POPC      C217           -2.5874803022       19.9498136927        1.2200642155  MEMB      14              0.0000000000
      1828        14  POPC      H17R           -2.3586551319       18.9139162740        0.8901006101  MEMB      14              0.0000000000
      1829        14  POPC      H17S           -1.8293036910       20.2919729214        1.9565533969  MEMB      14              0.0000000000
      1830        14  POPC      C218           -2.7404856180       20.9129673954        0.0447560278  MEMB      14              0.0000000000
      1831        14  POPC      H18R           -3.5264301301       20.6051907664       -0.6776605431  MEMB      14              0.0000000000
      1832        14  POPC      H18S           -1.8488534155       20.9997566555       -0.6123437503  MEMB      14              0.0000000000
      1833        14  POPC      H18T           -2.9322594240       21.9798139349        0.2884413515  MEMB      14              0.0000000000
      1834        14  POPC      C33            -6.6316627701       13.0912653029       15.9715906342  MEMB      14              0.0000000000
      1835        14  POPC      H3X            -6.5863109748       14.0090170585       16.5960868987  MEMB      14              0.0000000000
      1836        14  POPC      H3Y            -7.7004595040       12.7879836987       15.9753912605  MEMB      14              0.0000000000
      1837        14  POPC      C34            -6.5708154432       13.4810471395       14.5380117914  MEMB      14              0.0000000000
      1838        14  POPC      H4X            -6.8994994908       12.5322773345       14.0624872209  MEMB      14              0.0000000000
      1839        14  POPC      H4Y            -5.5892915823       13.6997590643       14.0656807730  MEMB      14              0.0000000000
      1840        14  POPC      C35            -7.6368418689       14.5559123147       14.1315046747  MEMB      14              0.0000000000
      1841        14  POPC      H5X            -7.6035297401       15.4924151902       14.7283076860  MEMB      14              0.0000000000
      1842        14  POPC      H5Y            -8.6846004181       14.2285631939       14.3028675010  MEMB      14              0.0000000000
      1843        14  POPC      C36            -7.5420893244       14.8519954403       12.6713241391  MEMB      14              0.0000000000
      1844        14  POPC      H6X            -7.9749172939       14.1291708654       11.9470965099  MEMB      14              0.0000000000
      1845        14  POPC      H6Y            -6.4772326999       14.8821531703       12.3559006378  MEMB      14              0.0000000000
      1846        14  POPC      C37            -8.1311786718       16.1429729359       12.0888096411  MEMB      14              0.0000000000
      1847        14  POPC      H7X            -7.7536595070       16.9169177543       12.7908137173  MEMB      14              0.0000000000
      1848        14  POPC      H7Y            -9.2202448775       16.3087628118       11.9446935040  MEMB      14              0.0000000000
      1849        14  POPC      C38            -7.4841526524       16.6289971084       10.7686509912  MEMB      14              0.0000000000
      1850        14  POPC      H8X            -6.3909556615       16.7320307359       10.9378406436  MEMB      14              0.0000000000
      1851        14  POPC      H8Y            -7.8877015704       17.6398150339       10.5456788101  MEMB      14              0.0000000000
      1852        14  POPC      C39            -7.7051879108       15.7638703895        9.5214597792  MEMB      14              0.0000000000
      1853        14  POPC      H9X            -8.5539335960       16.2055646906        8.9567845088  MEMB      14              0.0000000000
      1854        14  POPC      H9Y            -8.1131738381       14.7557838979        9.7486817745  MEMB      14              0.0000000000
      1855        14  POPC      C310           -6.3705609093       15.6722776712        8.7869283988  MEMB      14              0.0000000000
      1856        14  POPC      H10X           -5.7992294525       14.9705143608        9.4314671630  MEMB      14              0.0000000000
      1857        14  POPC      H10Y           -5.8314351272       16.6428356936        8.7459243630  MEMB      14              0.0000000000
      1858        14  POPC      C311           -6.3304915941       15.0058216292        7.3554892891  MEMB      14              0.0000000000
      1859        14  POPC      H11X           -7.1273913549       15.4112241816        6.6960045110  MEMB      14              0.0000000000
      1860        14  POPC      H11Y           -6.6038210330       13.9657800394        7.6346413753  MEMB      14              0.0000000000
      1861        14  POPC      C312           -4.8820045991       15.0360455321        6.7772368499  MEMB      14              0.0000000000
      1862        14  POPC      H12X           -4.1420953125       14.6463060062        7.5086447185  MEMB      14              0.0000000000
      1863        14  POPC      H12Y           -4.6727421450       16.0969341666        6.5221959172  MEMB      14              0.0000000000
      1864        14  POPC      C313           -4.5952141565       14.2111997170        5.4902657277  MEMB      14              0.0000000000
      1865        14  POPC      H13X           -4.6809511681       13.1167768537        5.6611702988  MEMB      14              0.0000000000
      1866        14  POPC      H13Y           -3.5237449746       14.2347726374        5.1974869232  MEMB      14              0.0000000000
      1867        14  POPC      C314           -5.5659438779       14.4581775079        4.3203225659  MEMB      14              0.0000000000
      1868        14  POPC      H14X           -5.6543187021       15.5189297261        4.0020215392  MEMB      14              0.0000000000
      1869        14  POPC      H14Y           -6.5086851220       14.1407028877        4.8150650277  MEMB      14              0.0000000000
      1870        14  POPC      C315           -5.2830397196       13.7429485926        3.0068477943  MEMB      14              0.0000000000
      1871        14  POPC      H15X           -6.2297855047       13.5847467270        2.4474140003  MEMB      14              0.0000000000
      1872        14  POPC      H15Y           -4.8401960377       12.7407377095        3.1906499976  MEMB      14              0.0000000000
      1873        14  POPC      C316           -4.2913653969       14.5296742056        2.2291952388  MEMB      14              0.0000000000
      1874        14  POPC      H16X           -4.3122174780       14.1555340147        1.1832960543  MEMB      14              0.0000000000
      1875        14  POPC      H16Y           -3.2669742431       14.4849101824        2.6569106715  MEMB      14              0.0000000000
      1876        14  POPC      H16Z           -4.5265725192       15.5899526476        1.9950849811  MEMB      14              0.0000000000
      1877        15  POPC      N             -18.8473939873        1.9793697507       21.0431194023  MEMB      15              0.0000000000
      1878        15  POPC      C12           -19.7308718797        2.6617738678       20.0186384545  MEMB      15              0.0000000000
      1879        15  POPC      H12A          -19.1939050343        3.5805605214       19.8345250332  MEMB      15              0.0000000000
      1880        15  POPC      H12B          -20.6068531201        2.9945567802       20.5555856487  MEMB      15              0.0000000000
      1881        15  POPC      C13           -19.5306256038        0.7421438817       21.6085873931  MEMB      15              0.0000000000
      1882        15  POPC      H13A          -20.5898663017        0.9519512496       21.5888353963  MEMB      15              0.0000000000
      1883        15  POPC      H13B          -19.2790545774       -0.0686797307       20.9409968932  MEMB      15              0.0000000000
      1884        15  POPC      H13C          -19.2115176702        0.5728278707       22.6263803099  MEMB      15              0.0000000000
      1885        15  POPC      C14           -17.5225521525        1.6484555289       20.4954062844  MEMB      15              0.0000000000
      1886        15  POPC      H14A          -16.8624637957        1.2205474300       21.2353914541  MEMB      15              0.0000000000
      1887        15  POPC      H14B          -17.6298812534        0.9197612448       19.7055422738  MEMB      15              0.0000000000
      1888        15  POPC      H14C          -17.0506681100        2.5742223669       20.2009893992  MEMB      15              0.0000000000
      1889        15  POPC      C15           -18.7450601678        2.9522470810       22.1778198150  MEMB      15              0.0000000000
      1890        15  POPC      H15A          -18.1533642365        2.6061090992       23.0123761660  MEMB      15              0.0000000000
      1891        15  POPC      H15B          -19.7248802416        3.1018334685       22.6067445525  MEMB      15              0.0000000000
      1892        15  POPC      H15C          -18.4044437011        3.9621647812       22.0033298725  MEMB      15              0.0000000000
      1893        15  POPC      C11           -20.1382603199        1.9108369801       18.7804114349  MEMB      15              0.0000000000
      1894        15  POPC      H11A          -20.8333507223        2.5580446104       18.2039631230  MEMB      15              0.0000000000
      1895        15  POPC      H11B          -20.6743909114        0.9503969944       18.9367445622  MEMB      15              0.0000000000
      1896        15  POPC      P             -18.3573526151        2.6124549951       16.9864312756  MEMB      15              0.0000000000
      1897        15  POPC      O13           -17.8047237704        3.7609776919       17.7275972520  MEMB      15              0.0000000000
      1898        15  POPC      O14           -19.4058316097        2.8787909182       15.9624792588  MEMB      15              0.0000000000
      1899        15  POPC      O12           -19.0389025009        1.5764800766       17.9375262581  MEMB      15              0.0000000000
      1900        15  POPC      O11           -17.2417749253        1.8712742269       16.2619831718  MEMB      15              0.0000000000
      1901        15  POPC      C1            -16.4199276421        0.9090582394       16.9408067594  MEMB      15              0.0000000000
      1902        15  POPC      HA            -16.9092551490        0.2598245438       17.6980221855  MEMB      15              0.0000000000
      1903        15  POPC      HB            -15.5813344101        1.4152350703       17.4650846211  MEMB      15              0.0000000000
      1904        15  POPC      C2            -15.7580436116       -0.1011527015       15.9808666498  MEMB      15              0.0000000000
      1905        15  POPC      HS            -14.8281157676       -0.4342580899       16.4893896185  MEMB      15              0.0000000000
      1906        15  POPC      O21           -15.4175547880        0.5050837466       14.7796168693  MEMB      15              0.0000000000
      1907        15  POPC      C21           -14.6271330025        1.6002461734       14.8648639648  MEMB      15              0.0000000000
      1908        15  POPC      O22           -13.7699423468        1.7439298934       15.7072476512  MEMB      15              0.0000000000
      1909        15  POPC      C22           -14.9727792738        2.6523216366       13.7980732291  MEMB      15              0.0000000000
      1910        15  POPC      H2R           -14.0464189614        3.1673909411       13.4650848487  MEMB      15              0.0000000000
      1911        15  POPC      H2S           -15.6433736901        3.4611241884       14.1592693009  MEMB      15              0.0000000000
      1912        15  POPC      C3            -16.6096629926       -1.2787523501       15.5870114755  MEMB      15              0.0000000000
      1913        15  POPC      HX            -16.8476949989       -1.8114747971       16.5324578811  MEMB      15              0.0000000000
      1914        15  POPC      HY            -16.0269707886       -2.0090601913       14.9858116948  MEMB      15              0.0000000000
      1915        15  POPC      O31           -17.8295127670       -0.8297081588       15.0564464677  MEMB      15              0.0000000000
      1916        15  POPC      C31           -18.0414952675       -1.0942696486       13.7616205390  MEMB      15              0.0000000000
      1917        15  POPC      O32           -17.2827799689       -1.7669198227       13.0462468381  MEMB      15              0.0000000000
      1918        15  POPC      C32           -19.2714039470       -0.3235461120       13.2159844658  MEMB      15              0.0000000000
      1919        15  POPC      H2X           -18.8490436386        0.6368078627       12.8503987049  MEMB      15              0.0000000000
      1920        15  POPC      H2Y           -19.9602936206       -0.2376194244       14.0833760781  MEMB      15              0.0000000000
      1921        15  POPC      C23           -15.7962280612        1.9934110980       12.6787880930  MEMB      15              0.0000000000
      1922        15  POPC      H3R           -16.2898670605        2.8428055768       12.1599714457  MEMB      15              0.0000000000
      1923        15  POPC      H3S           -16.5129874017        1.1702225355       12.8860026752  MEMB      15              0.0000000000
      1924        15  POPC      C24           -14.8242886755        1.3251637044       11.6736454527  MEMB      15              0.0000000000
      1925        15  POPC      H4R           -14.2448437464        0.5668182029       12.2423957494  MEMB      15              0.0000000000
      1926        15  POPC      H4S           -14.2409213919        2.1577232987       11.2254849959  MEMB      15              0.0000000000
      1927        15  POPC      C25           -15.5751819599        0.5708681196       10.5643507300  MEMB      15              0.0000000000
      1928        15  POPC      H5R           -16.4644212641        1.2059465280       10.3637268899  MEMB      15              0.0000000000
      1929        15  POPC      H5S           -15.9829229224       -0.4211035371       10.8542824162  MEMB      15              0.0000000000
      1930        15  POPC      C26           -14.8336660584        0.3603692340        9.1576766639  MEMB      15              0.0000000000
      1931        15  POPC      H6R           -13.7437146076        0.1907752578        9.2902094254  MEMB      15              0.0000000000
      1932        15  POPC      H6S           -14.8944483761        1.3159998989        8.5942972480  MEMB      15              0.0000000000
      1933        15  POPC      C27           -15.2716445767       -0.9367428589        8.4267865817  MEMB      15              0.0000000000
      1934        15  POPC      H7R           -15.4554216438       -1.7128679382        9.2002058724  MEMB      15              0.0000000000
      1935        15  POPC      H7S           -14.4260121573       -1.3541971104        7.8394546421  MEMB      15              0.0000000000
      1936        15  POPC      C28           -16.4755242586       -0.6755211945        7.5760325040  MEMB      15              0.0000000000
      1937        15  POPC      H8R           -17.1302993590        0.1332145960        7.9653095124  MEMB      15              0.0000000000
      1938        15  POPC      H8S           -17.0663497249       -1.5964235725        7.3831983552  MEMB      15              0.0000000000
      1939        15  POPC      C29           -16.2098751063       -0.1583053210        6.2174178852  MEMB      15              0.0000000000
      1940        15  POPC      H91           -16.2775181583        0.9355625840        6.3116378236  MEMB      15              0.0000000000
      1941        15  POPC      C210          -15.7206764419       -0.7532502842        5.1493307082  MEMB      15              0.0000000000
      1942        15  POPC      H101          -15.5415002594       -0.2138041015        4.2075800764  MEMB      15              0.0000000000
      1943        15  POPC      C211          -15.3820332197       -2.2189469574        5.0535334275  MEMB      15              0.0000000000
      1944        15  POPC      H11R          -15.2820966033       -2.6184133264        6.0854051331  MEMB      15              0.0000000000
      1945        15  POPC      H11S          -14.3938762789       -2.3282084299        4.5576213240  MEMB      15              0.0000000000
      1946        15  POPC      C212          -16.5032778718       -2.9754183716        4.3954530471  MEMB      15              0.0000000000
      1947        15  POPC      H12R          -17.4440398468       -2.8475510994        4.9724603679  MEMB      15              0.0000000000
      1948        15  POPC      H12S          -16.1178017344       -4.0169422083        4.3645119999  MEMB      15              0.0000000000
      1949        15  POPC      C213          -16.5782548809       -2.5882197928        2.9001119895  MEMB      15              0.0000000000
      1950        15  POPC      H13R          -15.6004148569       -2.9607940098        2.5268309504  MEMB      15              0.0000000000
      1951        15  POPC      H13S          -16.5384035466       -1.5067643586        2.6487417027  MEMB      15              0.0000000000
      1952        15  POPC      C214          -17.6722254410       -3.2688206923        2.1184256831  MEMB      15              0.0000000000
      1953        15  POPC      H14R          -17.7144710313       -4.3564998443        2.3408898656  MEMB      15              0.0000000000
      1954        15  POPC      H14S          -17.4232206911       -3.1685828250        1.0403388267  MEMB      15              0.0000000000
      1955        15  POPC      C215          -18.9280274760       -2.6278084772        2.5415559407  MEMB      15              0.0000000000
      1956        15  POPC      H15R          -18.7245616241       -1.5368730394        2.5943038559  MEMB      15              0.0000000000
      1957        15  POPC      H15S          -19.2192881066       -2.8854926222        3.5822701842  MEMB      15              0.0000000000
      1958        15  POPC      C216          -20.1382720932       -2.8668958323        1.5554527102  MEMB      15              0.0000000000
      1959        15  POPC      H16R          -20.5726752753       -3.8800854130        1.6935172504  MEMB      15              0.0000000000
      1960        15  POPC      H16S          -19.7243638274       -2.7882264016        0.5274384829  MEMB      15              0.0000000000
      1961        15  POPC      C217          -21.2109038383       -1.7251870392        1.6643013651  MEMB      15              0.0000000000
      1962        15  POPC      H17R          -20.7412521205       -0.7735135707        1.3355674337  MEMB      15              0.0000000000
      1963        15  POPC      H17S          -21.6040587500       -1.6786477469        2.7023685857  MEMB      15              0.0000000000
      1964        15  POPC      C218          -22.3849757775       -1.9914688633        0.6521611387  MEMB      15              0.0000000000
      1965        15  POPC      H18R          -22.8061339513       -2.9840319892        0.9200522766  MEMB      15              0.0000000000
      1966        15  POPC      H18S          -22.1003109693       -1.8630633322       -0.4140465512  MEMB      15              0.0000000000
      1967        15  POPC      H18T          -23.1722788007       -1.2113652572        0.7290618027  MEMB      15              0.0000000000
      1968        15  POPC      C33           -19.9690581917       -1.1447708296       12.1251188578  MEMB      15              0.0000000000
      1969        15  POPC      H3X           -20.0467303280       -2.1287229375       12.6351448823  MEMB      15              0.0000000000
      1970        15  POPC      H3Y           -19.3048165007       -1.2080171928       11.2368037559  MEMB      15              0.0000000000
      1971        15  POPC      C34           -21.4100167469       -0.6861934842       11.8199288184  MEMB      15              0.0000000000
      1972        15  POPC      H4X           -22.0167686836       -0.8640596436       12.7334585766  MEMB      15              0.0000000000
      1973        15  POPC      H4Y           -21.7001129636       -1.2615424552       10.9148656794  MEMB      15              0.0000000000
      1974        15  POPC      C35           -21.5934280502        0.7933675665       11.3754561847  MEMB      15              0.0000000000
      1975        15  POPC      H5X           -21.2861938638        1.4340913369       12.2295056140  MEMB      15              0.0000000000
      1976        15  POPC      H5Y           -22.6924932391        0.8622048483       11.2283559797  MEMB      15              0.0000000000
      1977        15  POPC      C36           -20.8594821374        1.1196241382       10.1253765290  MEMB      15              0.0000000000
      1978        15  POPC      H6X           -21.2670083087        0.5242490044        9.2805255876  MEMB      15              0.0000000000
      1979        15  POPC      H6Y           -19.7552054530        1.0045747464       10.0846618276  MEMB      15              0.0000000000
      1980        15  POPC      C37           -21.0760981566        2.5759868681        9.6060104081  MEMB      15              0.0000000000
      1981        15  POPC      H7X           -20.5021657546        3.2960028005       10.2277020456  MEMB      15              0.0000000000
      1982        15  POPC      H7Y           -22.1459407891        2.8670206434        9.6771195197  MEMB      15              0.0000000000
      1983        15  POPC      C38           -20.6908111430        2.6013651238        8.0849338026  MEMB      15              0.0000000000
      1984        15  POPC      H8X           -21.2166032809        1.7701845396        7.5682105486  MEMB      15              0.0000000000
      1985        15  POPC      H8Y           -19.6048069052        2.3675695917        8.0689487335  MEMB      15              0.0000000000
      1986        15  POPC      C39           -20.8543136957        3.9221976502        7.3311213965  MEMB      15              0.0000000000
      1987        15  POPC      H9X           -20.4150114499        4.8049768773        7.8430148198  MEMB      15              0.0000000000
      1988        15  POPC      H9Y           -21.8963948976        3.9233135650        6.9459113474  MEMB      15              0.0000000000
      1989        15  POPC      C310          -20.1074578290        3.9054588602        5.9845108756  MEMB      15              0.0000000000
      1990        15  POPC      H10X          -20.4296737734        4.7666619446        5.3609506373  MEMB      15              0.0000000000
      1991        15  POPC      H10Y          -20.4247938688        3.0716967356        5.3223481694  MEMB      15              0.0000000000
      1992        15  POPC      C311          -18.5796637928        3.7612913562        6.0097694286  MEMB      15              0.0000000000
      1993        15  POPC      H11X          -18.3995847201        2.7127483781        6.3298477421  MEMB      15              0.0000000000
      1994        15  POPC      H11Y          -18.2355752801        4.4223007780        6.8337791596  MEMB      15              0.0000000000
      1995        15  POPC      C312          -17.9040842928        4.2371241709        4.7404744383  MEMB      15              0.0000000000
      1996        15  POPC      H12X          -16.8402626517        4.4747813544        4.9552389845  MEMB      15              0.0000000000
      1997        15  POPC      H12Y          -18.4928181560        5.0644950610        4.2897296876  MEMB      15              0.0000000000
      1998        15  POPC      C313          -17.9797154494        3.0490600058        3.6876706100  MEMB      15              0.0000000000
      1999        15  POPC      H13X          -18.9758250981        2.5865179863        3.5199164580  MEMB      15              0.0000000000
      2000        15  POPC      H13Y          -17.3196555956        2.3071789629        4.1859220640  MEMB      15              0.0000000000
      2001        15  POPC      C314          -17.2721499437        3.4112509231        2.3508972226  MEMB      15              0.0000000000
      2002        15  POPC      H14X          -16.5376799220        4.2038339929        2.6091347547  MEMB      15              0.0000000000
      2003        15  POPC      H14Y          -18.0546361243        3.9355355466        1.7616927989  MEMB      15              0.0000000000
      2004        15  POPC      C315          -16.5823559406        2.3179225903        1.6417025547  MEMB      15              0.0000000000
      2005        15  POPC      H15X          -15.9844940791        1.7535314391        2.3889272329  MEMB      15              0.0000000000
      2006        15  POPC      H15Y          -15.9836504514        2.8894444814        0.9005988760  MEMB      15              0.0000000000
      2007        15  POPC      C316          -17.5403053165        1.2723119167        1.0076373682  MEMB      15              0.0000000000
      2008        15  POPC      H16X          -18.2673005234        1.5937007800        0.2314220045  MEMB      15              0.0000000000
      2009        15  POPC      H16Y          -18.2143232506        0.8210824065        1.7668557309  MEMB      15              0.0000000000
      2010        15  POPC      H16Z          -16.9487102102        0.4048232595        0.6445940240  MEMB      15              0.0000000000
      2011        16  POPC      N              16.5294286419       12.8797826316       19.9606530554  MEMB      16              0.0000000000
      2012        16  POPC      C12            15.2303279662       12.6504069692       20.7379283712  MEMB      16              0.0000000000
      2013        16  POPC      H12A           15.0743587753       13.4645904583       21.4301557862  MEMB      16              0.0000000000
      2014        16  POPC      H12B           15.4181500072       11.8074382893       21.3864085761  MEMB      16              0.0000000000
      2015        16  POPC      C13            16.6307184310       11.5877798968       19.1315666474  MEMB      16              0.0000000000
      2016        16  POPC      H13A           16.8974999330       10.7364511356       19.7402267853  MEMB      16              0.0000000000
      2017        16  POPC      H13B           15.6940011019       11.3975330117       18.6288074295  MEMB      16              0.0000000000
      2018        16  POPC      H13C           17.4313555339       11.7102128180       18.4171504716  MEMB      16              0.0000000000
      2019        16  POPC      C14            16.5601779774       14.1002779413       19.1601905436  MEMB      16              0.0000000000
      2020        16  POPC      H14A           15.6379639001       14.1813861113       18.6040048849  MEMB      16              0.0000000000
      2021        16  POPC      H14B           16.5397492190       14.9400277197       19.8390153549  MEMB      16              0.0000000000
      2022        16  POPC      H14C           17.3892213520       14.2098439806       18.4767562108  MEMB      16              0.0000000000
      2023        16  POPC      C15            17.6274010098       12.9682200352       20.9072230438  MEMB      16              0.0000000000
      2024        16  POPC      H15A           18.5587552005       12.9829454726       20.3606312446  MEMB      16              0.0000000000
      2025        16  POPC      H15B           17.5765013242       12.1024001707       21.5507796848  MEMB      16              0.0000000000
      2026        16  POPC      H15C           17.5248437611       13.9263598364       21.3949219225  MEMB      16              0.0000000000
      2027        16  POPC      C11            13.9907306672       12.3236166113       19.8804284695  MEMB      16              0.0000000000
      2028        16  POPC      H11A           13.2044821601       12.0906531370       20.6300031527  MEMB      16              0.0000000000
      2029        16  POPC      H11B           14.0831260692       11.4347813163       19.2203103637  MEMB      16              0.0000000000
      2030        16  POPC      P              12.4044439578       13.0129117439       17.8409986389  MEMB      16              0.0000000000
      2031        16  POPC      O13            11.3153123526       14.0212156977       17.9818097236  MEMB      16              0.0000000000
      2032        16  POPC      O14            12.0196121267       11.5441009023       17.9177400768  MEMB      16              0.0000000000
      2033        16  POPC      O12            13.5044049274       13.3393811462       19.0155327199  MEMB      16              0.0000000000
      2034        16  POPC      O11            13.1996018403       13.2853713296       16.4659287118  MEMB      16              0.0000000000
      2035        16  POPC      C1             14.2211715177       14.2124916935       16.3518013333  MEMB      16              0.0000000000
      2036        16  POPC      HA             15.1765497909       13.8465419224       15.9186108703  MEMB      16              0.0000000000
      2037        16  POPC      HB             14.5640323121       14.6195986123       17.3270098762  MEMB      16              0.0000000000
      2038        16  POPC      C2             13.7737780613       15.4507901506       15.4896345735  MEMB      16              0.0000000000
      2039        16  POPC      HS             12.9788990357       15.9430656403       16.0897623010  MEMB      16              0.0000000000
      2040        16  POPC      O21            13.1569308852       15.0279648236       14.1747345020  MEMB      16              0.0000000000
      2041        16  POPC      C21            12.6306947134       15.8664286133       13.4001163478  MEMB      16              0.0000000000
      2042        16  POPC      O22            12.5555987499       17.1111252018       13.6174438645  MEMB      16              0.0000000000
      2043        16  POPC      C22            12.0436789523       15.1819219288       12.1814905239  MEMB      16              0.0000000000
      2044        16  POPC      H2R            11.1592665994       14.5760008013       12.4730295358  MEMB      16              0.0000000000
      2045        16  POPC      H2S            12.7284946366       14.4394574859       11.7187863551  MEMB      16              0.0000000000
      2046        16  POPC      C3             15.0305455963       16.3830176780       15.1836251480  MEMB      16              0.0000000000
      2047        16  POPC      HX             15.4580344015       16.5951995527       16.1868964521  MEMB      16              0.0000000000
      2048        16  POPC      HY             14.7637458623       17.3103493792       14.6329940249  MEMB      16              0.0000000000
      2049        16  POPC      O31            15.9004230816       15.5048110198       14.4684589728  MEMB      16              0.0000000000
      2050        16  POPC      C31            16.5807023119       15.9526826683       13.4933804127  MEMB      16              0.0000000000
      2051        16  POPC      O32            16.4875082999       17.0466697396       12.9903806934  MEMB      16              0.0000000000
      2052        16  POPC      C32            17.6137704692       14.9179071577       13.1179485113  MEMB      16              0.0000000000
      2053        16  POPC      H2X            17.8760395252       14.5035112370       14.1148495371  MEMB      16              0.0000000000
      2054        16  POPC      H2Y            18.4954739795       15.4696551329       12.7274435522  MEMB      16              0.0000000000
      2055        16  POPC      C23            11.5830216989       16.2600550975       11.1905249364  MEMB      16              0.0000000000
      2056        16  POPC      H3R            10.9007712037       17.0582895481       11.5533990818  MEMB      16              0.0000000000
      2057        16  POPC      H3S            10.9004058589       15.8473078991       10.4172227646  MEMB      16              0.0000000000
      2058        16  POPC      C24            12.6451275094       16.9636882770       10.3035491917  MEMB      16              0.0000000000
      2059        16  POPC      H4R            13.3322100729       17.6156603693       10.8842131599  MEMB      16              0.0000000000
      2060        16  POPC      H4S            12.1109284049       17.6563290838        9.6185668961  MEMB      16              0.0000000000
      2061        16  POPC      C25            13.5243399527       15.9427433096        9.5689630617  MEMB      16              0.0000000000
      2062        16  POPC      H5R            12.8953773580       15.2783902428        8.9385968201  MEMB      16              0.0000000000
      2063        16  POPC      H5S            14.0078784248       15.2597610538       10.2997481082  MEMB      16              0.0000000000
      2064        16  POPC      C26            14.6837127141       16.5311466383        8.7380184492  MEMB      16              0.0000000000
      2065        16  POPC      H6R            14.3480073638       16.9496715917        7.7651560457  MEMB      16              0.0000000000
      2066        16  POPC      H6S            15.2098963305       15.5833388607        8.4948886784  MEMB      16              0.0000000000
      2067        16  POPC      C27            15.6565217067       17.4604752421        9.5033523740  MEMB      16              0.0000000000
      2068        16  POPC      H7R            15.8187433370       17.0114031918       10.5065178947  MEMB      16              0.0000000000
      2069        16  POPC      H7S            15.1906486477       18.4336520481        9.7683250314  MEMB      16              0.0000000000
      2070        16  POPC      C28            16.9339284941       17.8506504177        8.7477882873  MEMB      16              0.0000000000
      2071        16  POPC      H8R            17.4893543816       18.6381970227        9.3005934373  MEMB      16              0.0000000000
      2072        16  POPC      H8S            16.6630386436       18.1560775002        7.7145150951  MEMB      16              0.0000000000
      2073        16  POPC      C29            17.8265105016       16.6066957034        8.6941006135  MEMB      16              0.0000000000
      2074        16  POPC      H91            18.3187267527       16.3630508847        9.6471804479  MEMB      16              0.0000000000
      2075        16  POPC      C210           18.1305342687       15.8784168485        7.5575761734  MEMB      16              0.0000000000
      2076        16  POPC      H101           18.8217718480       15.0239449097        7.6030535559  MEMB      16              0.0000000000
      2077        16  POPC      C211           17.5767964416       16.1688101981        6.1860371957  MEMB      16              0.0000000000
      2078        16  POPC      H11R           18.3746406711       16.5366677378        5.5060032299  MEMB      16              0.0000000000
      2079        16  POPC      H11S           16.8714404210       17.0241205909        6.1136622580  MEMB      16              0.0000000000
      2080        16  POPC      C212           16.6034352889       15.2014364919        5.5143635806  MEMB      16              0.0000000000
      2081        16  POPC      H12R           16.1590173184       15.6061634429        4.5800134826  MEMB      16              0.0000000000
      2082        16  POPC      H12S           15.6883372398       15.0334620418        6.1215702934  MEMB      16              0.0000000000
      2083        16  POPC      C213           17.1642582527       13.8305194130        5.3074405629  MEMB      16              0.0000000000
      2084        16  POPC      H13R           16.3579511064       13.1650401190        4.9315057015  MEMB      16              0.0000000000
      2085        16  POPC      H13S           17.3331152984       13.2346516502        6.2298011641  MEMB      16              0.0000000000
      2086        16  POPC      C214           18.4451597748       13.7996722919        4.5215457871  MEMB      16              0.0000000000
      2087        16  POPC      H14R           19.2908514778       14.0651725232        5.1913486007  MEMB      16              0.0000000000
      2088        16  POPC      H14S           18.2964733671       14.4974661175        3.6699020016  MEMB      16              0.0000000000
      2089        16  POPC      C215           18.9538484270       12.3876542371        3.8820397661  MEMB      16              0.0000000000
      2090        16  POPC      H15R           19.2688438442       11.8481095638        4.8007290332  MEMB      16              0.0000000000
      2091        16  POPC      H15S           19.8840219998       12.5912555029        3.3096364351  MEMB      16              0.0000000000
      2092        16  POPC      C216           17.8042536672       11.5803863285        3.1745218909  MEMB      16              0.0000000000
      2093        16  POPC      H16R           16.9508023065       12.1988318007        2.8231430266  MEMB      16              0.0000000000
      2094        16  POPC      H16S           17.5214892049       10.9051019628        4.0101993666  MEMB      16              0.0000000000
      2095        16  POPC      C217           18.1399926206       10.7889339979        1.9327341524  MEMB      16              0.0000000000
      2096        16  POPC      H17R           17.3063805269       10.0724504160        1.7712934614  MEMB      16              0.0000000000
      2097        16  POPC      H17S           18.9792674143       10.0725922990        2.0623226910  MEMB      16              0.0000000000
      2098        16  POPC      C218           18.1677926787       11.5920497225        0.6513878449  MEMB      16              0.0000000000
      2099        16  POPC      H18R           17.1558764775       11.9497681974        0.3643611290  MEMB      16              0.0000000000
      2100        16  POPC      H18S           18.4392667695       10.9165604532       -0.1878601766  MEMB      16              0.0000000000
      2101        16  POPC      H18T           18.8828665840       12.4279908965        0.8069276939  MEMB      16              0.0000000000
      2102        16  POPC      C33            16.9758767598       13.8863287753       12.1314887778  MEMB      16              0.0000000000
      2103        16  POPC      H3X            17.6920929589       13.0592000350       11.9385806526  MEMB      16              0.0000000000
      2104        16  POPC      H3Y            16.6907551620       14.3933061257       11.1849155557  MEMB      16              0.0000000000
      2105        16  POPC      C34            15.6950834778       13.2351021988       12.6537931832  MEMB      16              0.0000000000
      2106        16  POPC      H4X            14.7758681073       13.8584150922       12.6828673852  MEMB      16              0.0000000000
      2107        16  POPC      H4Y            15.8516667532       13.1189838613       13.7475571784  MEMB      16              0.0000000000
      2108        16  POPC      C35            15.3271345456       11.8524583689       12.1321063126  MEMB      16              0.0000000000
      2109        16  POPC      H5X            14.7571302144       11.3197882174       12.9231045363  MEMB      16              0.0000000000
      2110        16  POPC      H5Y            16.2638704234       11.3024934953       11.8988989093  MEMB      16              0.0000000000
      2111        16  POPC      C36            14.4696609421       11.9326839755       10.8511477684  MEMB      16              0.0000000000
      2112        16  POPC      H6X            15.0189020923       12.6627165222       10.2189233909  MEMB      16              0.0000000000
      2113        16  POPC      H6Y            13.4532163568       12.2872723676       11.1257898739  MEMB      16              0.0000000000
      2114        16  POPC      C37            14.2799005838       10.6168755738        9.9877041645  MEMB      16              0.0000000000
      2115        16  POPC      H7X            13.8406397449        9.8895653839       10.7035192742  MEMB      16              0.0000000000
      2116        16  POPC      H7Y            15.2568093853       10.1749086218        9.6967827077  MEMB      16              0.0000000000
      2117        16  POPC      C38            13.3149685031       10.8936827166        8.8300460790  MEMB      16              0.0000000000
      2118        16  POPC      H8X            12.4181007846       11.4546005205        9.1696343638  MEMB      16              0.0000000000
      2119        16  POPC      H8Y            12.9031579674        9.9448770775        8.4244585134  MEMB      16              0.0000000000
      2120        16  POPC      C39            13.8991001561       11.8245137012        7.8140076120  MEMB      16              0.0000000000
      2121        16  POPC      H9X            14.9645533316       11.5351129876        7.6900008908  MEMB      16              0.0000000000
      2122        16  POPC      H9Y            13.8072107475       12.9125716438        8.0189634362  MEMB      16              0.0000000000
      2123        16  POPC      C310           13.2796101937       11.5535854211        6.3846056271  MEMB      16              0.0000000000
      2124        16  POPC      H10X           13.1770212303       10.4686414009        6.1685196618  MEMB      16              0.0000000000
      2125        16  POPC      H10Y           14.0277196799       11.8539846345        5.6201359639  MEMB      16              0.0000000000
      2126        16  POPC      C311           12.0465733002       12.2503703910        6.1282053612  MEMB      16              0.0000000000
      2127        16  POPC      H11X           11.8519292664       13.1196114026        6.7921740067  MEMB      16              0.0000000000
      2128        16  POPC      H11Y           11.2440796737       11.5741099769        6.4928922931  MEMB      16              0.0000000000
      2129        16  POPC      C312           11.8265877388       12.5899798677        4.6636394698  MEMB      16              0.0000000000
      2130        16  POPC      H12X           10.7816427742       12.9546479934        4.5665405933  MEMB      16              0.0000000000
      2131        16  POPC      H12Y           11.8925718823       11.6713702563        4.0422507103  MEMB      16              0.0000000000
      2132        16  POPC      C313           12.8733008932       13.6049655881        4.2031050383  MEMB      16              0.0000000000
      2133        16  POPC      H13X           13.7682450272       13.0143943607        3.9122056791  MEMB      16              0.0000000000
      2134        16  POPC      H13Y           13.0631168300       14.3361307874        5.0177754359  MEMB      16              0.0000000000
      2135        16  POPC      C314           12.3242691309       14.4329083407        3.0296113577  MEMB      16              0.0000000000
      2136        16  POPC      H14X           13.1378971992       15.0775888134        2.6337363227  MEMB      16              0.0000000000
      2137        16  POPC      H14Y           11.4677806212       15.0057853234        3.4450165873  MEMB      16              0.0000000000
      2138        16  POPC      C315           11.9253119014       13.4619911350        1.9337067534  MEMB      16              0.0000000000
      2139        16  POPC      H15X           10.9251276734       13.7496547392        1.5448607727  MEMB      16              0.0000000000
      2140        16  POPC      H15Y           11.9466171489       12.3714448623        2.1448370837  MEMB      16              0.0000000000
      2141        16  POPC      C316           12.8651179131       13.5878099914        0.7288799078  MEMB      16              0.0000000000
      2142        16  POPC      H16X           13.9529672785       13.4336610965        0.8936306769  MEMB      16              0.0000000000
      2143        16  POPC      H16Y           12.8772731777       14.5843944481        0.2379686880  MEMB      16              0.0000000000
      2144        16  POPC      H16Z           12.3201126917       12.9779727157       -0.0230439002  MEMB      16              0.0000000000
      2145        17  POPC      N               6.4163471829       16.2284720411       19.2548342807  MEMB      17              0.0000000000
      2146        17  POPC      C12             7.2021889684       16.9350443266       18.2055815137  MEMB      17              0.0000000000
      2147        17  POPC      H12A            6.5533489456       17.3081627960       17.4269999586  MEMB      17              0.0000000000
      2148        17  POPC      H12B            7.6961105895       16.1009963391       17.7293404221  MEMB      17              0.0000000000
      2149        17  POPC      C13             5.6259278249       17.1496312231       20.1034302994  MEMB      17              0.0000000000
      2150        17  POPC      H13A            6.1483525085       17.5877410292       20.9410054913  MEMB      17              0.0000000000
      2151        17  POPC      H13B            5.2150883948       17.9746016533       19.5403718866  MEMB      17              0.0000000000
      2152        17  POPC      H13C            4.7341693355       16.6414446455       20.4394557533  MEMB      17              0.0000000000
      2153        17  POPC      C14             5.2879027142       15.4473660664       18.5231860748  MEMB      17              0.0000000000
      2154        17  POPC      H14A            4.7006911572       14.8597371647       19.2133130932  MEMB      17              0.0000000000
      2155        17  POPC      H14B            4.5716782773       16.1259312544       18.0839006651  MEMB      17              0.0000000000
      2156        17  POPC      H14C            5.7068215854       14.8247376529       17.7465001462  MEMB      17              0.0000000000
      2157        17  POPC      C15             7.3358085285       15.2888843420       20.0456028324  MEMB      17              0.0000000000
      2158        17  POPC      H15A            7.9081260952       14.6408994288       19.3983252598  MEMB      17              0.0000000000
      2159        17  POPC      H15B            6.8000263808       14.7866844147       20.8375198810  MEMB      17              0.0000000000
      2160        17  POPC      H15C            8.1054495415       15.8183952030       20.5875168346  MEMB      17              0.0000000000
      2161        17  POPC      C11             8.2355033644       18.0115091014       18.5324604976  MEMB      17              0.0000000000
      2162        17  POPC      H11A            8.6354417694       18.4484848846       17.5925548934  MEMB      17              0.0000000000
      2163        17  POPC      H11B            9.0431887844       17.3858588595       18.9689542667  MEMB      17              0.0000000000
      2164        17  POPC      P               7.0279996717       20.2767406063       18.9111419660  MEMB      17              0.0000000000
      2165        17  POPC      O13             7.9257878350       21.4607762363       18.8971865436  MEMB      17              0.0000000000
      2166        17  POPC      O14             5.7689762069       20.5545819436       19.6696234469  MEMB      17              0.0000000000
      2167        17  POPC      O12             7.7036195167       19.0139315146       19.4808668940  MEMB      17              0.0000000000
      2168        17  POPC      O11             6.7276580865       20.0069032985       17.3760856520  MEMB      17              0.0000000000
      2169        17  POPC      C1              5.4663730403       20.3989873804       16.7389426455  MEMB      17              0.0000000000
      2170        17  POPC      HA              5.4945841584       21.5048182887       16.6356793983  MEMB      17              0.0000000000
      2171        17  POPC      HB              4.6877440162       20.0291446623       17.4398520768  MEMB      17              0.0000000000
      2172        17  POPC      C2              5.2218751900       19.8303654410       15.3769674850  MEMB      17              0.0000000000
      2173        17  POPC      HS              4.1704678576       19.6671285515       15.0572529249  MEMB      17              0.0000000000
      2174        17  POPC      O21             5.9523745835       18.5795720133       15.1593361448  MEMB      17              0.0000000000
      2175        17  POPC      C21             5.3042914645       17.4347405153       14.7507827422  MEMB      17              0.0000000000
      2176        17  POPC      O22             4.1096922150       17.2043972649       14.8150273221  MEMB      17              0.0000000000
      2177        17  POPC      C22             6.4085637106       16.5173531207       14.1535969558  MEMB      17              0.0000000000
      2178        17  POPC      H2R             6.0025998846       15.4971241602       14.3228522741  MEMB      17              0.0000000000
      2179        17  POPC      H2S             7.3196217013       16.4634544988       14.7871502331  MEMB      17              0.0000000000
      2180        17  POPC      C3              5.6739223393       20.7670527291       14.2697630767  MEMB      17              0.0000000000
      2181        17  POPC      HX              6.7131617314       21.1420713692       14.3866544070  MEMB      17              0.0000000000
      2182        17  POPC      HY              5.0311841405       21.6731903296       14.2808756030  MEMB      17              0.0000000000
      2183        17  POPC      O31             5.7311000362       20.0894644589       12.9771823854  MEMB      17              0.0000000000
      2184        17  POPC      C31             4.6233777183       20.2343013575       12.2142530962  MEMB      17              0.0000000000
      2185        17  POPC      O32             3.6200693434       20.7813051452       12.5644612357  MEMB      17              0.0000000000
      2186        17  POPC      C32             4.7922204006       19.4519062939       10.9554548632  MEMB      17              0.0000000000
      2187        17  POPC      H2X             4.9912572204       18.3748501095       11.1416141675  MEMB      17              0.0000000000
      2188        17  POPC      H2Y             5.7026027326       19.8217274409       10.4370368744  MEMB      17              0.0000000000
      2189        17  POPC      C23             6.8368161353       16.9785242713       12.7655404711  MEMB      17              0.0000000000
      2190        17  POPC      H3R             6.9648629753       18.0821107302       12.7702404704  MEMB      17              0.0000000000
      2191        17  POPC      H3S             5.9523216501       16.7565968256       12.1309236592  MEMB      17              0.0000000000
      2192        17  POPC      C24             8.0047422796       16.3055809878       12.1046823387  MEMB      17              0.0000000000
      2193        17  POPC      H4R             7.9346388034       15.2221180164       12.3402973576  MEMB      17              0.0000000000
      2194        17  POPC      H4S             8.9555528391       16.5991130842       12.5987669391  MEMB      17              0.0000000000
      2195        17  POPC      C25             8.0236420450       16.4133486717       10.6130550220  MEMB      17              0.0000000000
      2196        17  POPC      H5R             7.1185069694       15.7880517892       10.4579581550  MEMB      17              0.0000000000
      2197        17  POPC      H5S             8.8457273202       15.7522067447       10.2646474080  MEMB      17              0.0000000000
      2198        17  POPC      C26             8.1172779506       17.8604623722       10.0633943169  MEMB      17              0.0000000000
      2199        17  POPC      H6R             7.4264263717       18.4122975385       10.7360929185  MEMB      17              0.0000000000
      2200        17  POPC      H6S             7.7246899466       17.8745508526        9.0241655998  MEMB      17              0.0000000000
      2201        17  POPC      C27             9.4822962595       18.5728075838       10.2167498188  MEMB      17              0.0000000000
      2202        17  POPC      H7R            10.2194872622       18.0130433956        9.6023116490  MEMB      17              0.0000000000
      2203        17  POPC      H7S             9.8726899871       18.5768397845       11.2568928541  MEMB      17              0.0000000000
      2204        17  POPC      C28             9.5904002190       20.0622898970        9.6254644702  MEMB      17              0.0000000000
      2205        17  POPC      H8R             9.1621376068       20.0252691327        8.6009933599  MEMB      17              0.0000000000
      2206        17  POPC      H8S            10.6513438087       20.3838982228        9.5527476000  MEMB      17              0.0000000000
      2207        17  POPC      C29             8.9497978186       21.2320228181       10.3630333280  MEMB      17              0.0000000000
      2208        17  POPC      H91             9.4895026326       21.6036747945       11.2465455930  MEMB      17              0.0000000000
      2209        17  POPC      C210            7.7911088605       21.9018412479       10.0356252590  MEMB      17              0.0000000000
      2210        17  POPC      H101            7.4474359502       22.6157868430       10.7986263074  MEMB      17              0.0000000000
      2211        17  POPC      C211            6.7772280430       21.7422034330        8.9598988491  MEMB      17              0.0000000000
      2212        17  POPC      H11R            5.7432635090       21.8060101601        9.3613543520  MEMB      17              0.0000000000
      2213        17  POPC      H11S            6.8500553981       20.7577890518        8.4500499299  MEMB      17              0.0000000000
      2214        17  POPC      C212            6.7886478113       22.8775622645        7.8980488356  MEMB      17              0.0000000000
      2215        17  POPC      H12R            7.8506407640       22.9900082655        7.5917027097  MEMB      17              0.0000000000
      2216        17  POPC      H12S            6.5573694835       23.8250538856        8.4301111978  MEMB      17              0.0000000000
      2217        17  POPC      C213            5.8007478128       22.8662531989        6.7236341735  MEMB      17              0.0000000000
      2218        17  POPC      H13R            5.6178953258       23.8728589491        6.2904710973  MEMB      17              0.0000000000
      2219        17  POPC      H13S            4.8157359181       22.6390013406        7.1845344803  MEMB      17              0.0000000000
      2220        17  POPC      C214            6.1053498564       21.9821325947        5.5105833689  MEMB      17              0.0000000000
      2221        17  POPC      H14R            6.3724512637       20.9784887235        5.9051427381  MEMB      17              0.0000000000
      2222        17  POPC      H14S            6.9690584422       22.3966521194        4.9479984652  MEMB      17              0.0000000000
      2223        17  POPC      C215            4.9425631517       21.7930076195        4.4414903549  MEMB      17              0.0000000000
      2224        17  POPC      H15R            4.5668570610       22.7684085974        4.0649824870  MEMB      17              0.0000000000
      2225        17  POPC      H15S            4.1260426203       21.2766510035        4.9901177969  MEMB      17              0.0000000000
      2226        17  POPC      C216            5.2401071020       20.7580231689        3.3441563424  MEMB      17              0.0000000000
      2227        17  POPC      H16R            4.4027533762       20.6079862033        2.6295599360  MEMB      17              0.0000000000
      2228        17  POPC      H16S            5.4879890331       19.7442360437        3.7250912030  MEMB      17              0.0000000000
      2229        17  POPC      C217            6.3352008486       21.2221295057        2.3102148101  MEMB      17              0.0000000000
      2230        17  POPC      H17R            7.3477774581       21.0398203880        2.7294673593  MEMB      17              0.0000000000
      2231        17  POPC      H17S            6.3471913600       22.3173094827        2.1237784186  MEMB      17              0.0000000000
      2232        17  POPC      C218            6.4083841133       20.5306930568        0.9550129435  MEMB      17              0.0000000000
      2233        17  POPC      H18R            6.4431223982       19.4207026436        0.9228360499  MEMB      17              0.0000000000
      2234        17  POPC      H18S            7.3451712587       20.7919544065        0.4178970973  MEMB      17              0.0000000000
      2235        17  POPC      H18T            5.5449629791       20.7876332850        0.3047771615  MEMB      17              0.0000000000
      2236        17  POPC      C33             3.5996750628       19.6563686347        9.9458450971  MEMB      17              0.0000000000
      2237        17  POPC      H3X             3.5673246731       20.7636725627        9.8612728306  MEMB      17              0.0000000000
      2238        17  POPC      H3Y             2.7836250058       19.1299834183       10.4855694971  MEMB      17              0.0000000000
      2239        17  POPC      C34             3.9114672051       19.0808316545        8.5887790237  MEMB      17              0.0000000000
      2240        17  POPC      H4X             4.8684629147       19.4376773733        8.1515816550  MEMB      17              0.0000000000
      2241        17  POPC      H4Y             3.0380271158       19.2945309760        7.9362788667  MEMB      17              0.0000000000
      2242        17  POPC      C35             3.9562263659       17.5594068685        8.6260798347  MEMB      17              0.0000000000
      2243        17  POPC      H5X             3.0428846019       17.2357038008        9.1695359796  MEMB      17              0.0000000000
      2244        17  POPC      H5Y             4.7852239888       17.2507103783        9.2982333568  MEMB      17              0.0000000000
      2245        17  POPC      C36             4.1605353862       16.9241017429        7.2212197151  MEMB      17              0.0000000000
      2246        17  POPC      H6X             5.2389455875       16.6941485141        7.0853006038  MEMB      17              0.0000000000
      2247        17  POPC      H6Y             3.7244543730       17.6880633340        6.5426056566  MEMB      17              0.0000000000
      2248        17  POPC      C37             3.2733660744       15.6860624379        6.9659059111  MEMB      17              0.0000000000
      2249        17  POPC      H7X             2.2084271623       15.9625366684        7.1201407894  MEMB      17              0.0000000000
      2250        17  POPC      H7Y             3.4900477831       14.7976019896        7.5967854518  MEMB      17              0.0000000000
      2251        17  POPC      C38             3.3946801155       15.1457348119        5.5592865771  MEMB      17              0.0000000000
      2252        17  POPC      H8X             3.5797867555       16.0030982865        4.8773888495  MEMB      17              0.0000000000
      2253        17  POPC      H8Y             2.4725622909       14.5907251102        5.2836351791  MEMB      17              0.0000000000
      2254        17  POPC      C39             4.4990796721       14.1058636474        5.4273982877  MEMB      17              0.0000000000
      2255        17  POPC      H9X             4.2759915352       13.4006355399        6.2563771411  MEMB      17              0.0000000000
      2256        17  POPC      H9Y             5.5254756188       14.5263326709        5.4909438216  MEMB      17              0.0000000000
      2257        17  POPC      C310            4.5310458881       13.3506073138        4.0568308627  MEMB      17              0.0000000000
      2258        17  POPC      H10X            3.5667419932       12.8094792509        3.9490372888  MEMB      17              0.0000000000
      2259        17  POPC      H10Y            5.3971580699       12.6550334491        4.0381827774  MEMB      17              0.0000000000
      2260        17  POPC      C311            4.6077978806       14.2715311165        2.7822814506  MEMB      17              0.0000000000
      2261        17  POPC      H11X            3.8544848051       15.0794856292        2.9008152539  MEMB      17              0.0000000000
      2262        17  POPC      H11Y            4.3969235375       13.6413625651        1.8919215449  MEMB      17              0.0000000000
      2263        17  POPC      C312            6.0261324052       14.8947242090        2.6364354478  MEMB      17              0.0000000000
      2264        17  POPC      H12X            6.7054056204       14.0973110033        2.2662439113  MEMB      17              0.0000000000
      2265        17  POPC      H12Y            6.3026993117       15.2543425396        3.6505873769  MEMB      17              0.0000000000
      2266        17  POPC      C313            6.0803193085       16.0381785241        1.6533931128  MEMB      17              0.0000000000
      2267        17  POPC      H13X            5.4145442223       16.8097081052        2.0958936005  MEMB      17              0.0000000000
      2268        17  POPC      H13Y            5.5500035620       15.6253219246        0.7687265997  MEMB      17              0.0000000000
      2269        17  POPC      C314            7.5294986433       16.4151754359        1.3929246830  MEMB      17              0.0000000000
      2270        17  POPC      H14X            7.3357766568       17.1883729363        0.6190006919  MEMB      17              0.0000000000
      2271        17  POPC      H14Y            8.0832468854       15.5357881394        1.0000365414  MEMB      17              0.0000000000
      2272        17  POPC      C315            8.4115293261       16.9612646190        2.5763651717  MEMB      17              0.0000000000
      2273        17  POPC      H15X            8.5233519234       16.2818072902        3.4482328524  MEMB      17              0.0000000000
      2274        17  POPC      H15Y            7.8978213505       17.8747553600        2.9450922709  MEMB      17              0.0000000000
      2275        17  POPC      C316            9.8975845647       17.2234394555        2.1695633386  MEMB      17              0.0000000000
      2276        17  POPC      H16X           10.3362325227       16.4780505478        1.4722094656  MEMB      17              0.0000000000
      2277        17  POPC      H16Y           10.5414465588       17.3725486593        3.0626088525  MEMB      17              0.0000000000
      2278        17  POPC      H16Z            9.9053563483       18.1864539419        1.6156111619  MEMB      17              0.0000000000
      2279        18  POPC      N              -7.2719339186      -16.8422691313       18.6885681824  MEMB      18              0.0000000000
      2280        18  POPC      C12            -5.8317730183      -17.0328050423       18.5788745938  MEMB      18              0.0000000000
      2281        18  POPC      H12A           -5.3260716129      -16.1044603264       18.3578727226  MEMB      18              0.0000000000
      2282        18  POPC      H12B           -5.6076928090      -17.6102828583       17.6941670273  MEMB      18              0.0000000000
      2283        18  POPC      C13            -7.6546062746      -16.0547756795       17.4215751723  MEMB      18              0.0000000000
      2284        18  POPC      H13A           -7.1446525293      -15.1179590440       17.5910504795  MEMB      18              0.0000000000
      2285        18  POPC      H13B           -7.1914229063      -16.6225358719       16.6281586934  MEMB      18              0.0000000000
      2286        18  POPC      H13C           -8.7225069268      -15.8951407703       17.3991107195  MEMB      18              0.0000000000
      2287        18  POPC      C14            -8.0782218073      -18.0885132806       18.7586377864  MEMB      18              0.0000000000
      2288        18  POPC      H14A           -9.1148133297      -17.7860946441       18.7791564396  MEMB      18              0.0000000000
      2289        18  POPC      H14B           -7.8518509154      -18.6374437471       17.8565116941  MEMB      18              0.0000000000
      2290        18  POPC      H14C           -7.7942949932      -18.6681105324       19.6245780285  MEMB      18              0.0000000000
      2291        18  POPC      C15            -7.5889332399      -15.9642706221       19.9530095549  MEMB      18              0.0000000000
      2292        18  POPC      H15A           -8.6337469451      -15.7304095030       20.0946893713  MEMB      18              0.0000000000
      2293        18  POPC      H15B           -7.0449798561      -15.0426662897       19.8075441346  MEMB      18              0.0000000000
      2294        18  POPC      H15C           -7.0984996080      -16.4178155420       20.8016388924  MEMB      18              0.0000000000
      2295        18  POPC      C11            -5.1069155906      -17.6642490711       19.7542006249  MEMB      18              0.0000000000
      2296        18  POPC      H11A           -5.1292867304      -16.9721879951       20.6230343761  MEMB      18              0.0000000000
      2297        18  POPC      H11B           -4.0253876319      -17.7190094478       19.5059675307  MEMB      18              0.0000000000
      2298        18  POPC      P              -5.1556166865      -20.1586428568       19.1586356734  MEMB      18              0.0000000000
      2299        18  POPC      O13            -5.6403342006      -21.4217370057       19.8376221783  MEMB      18              0.0000000000
      2300        18  POPC      O14            -3.6608188288      -20.0928018187       19.0710689920  MEMB      18              0.0000000000
      2301        18  POPC      O12            -5.6965670512      -18.9092919299       20.0656055076  MEMB      18              0.0000000000
      2302        18  POPC      O11            -5.8305032972      -19.8989940458       17.7122017335  MEMB      18              0.0000000000
      2303        18  POPC      C1             -6.7933898086      -20.9045905066       17.3091349888  MEMB      18              0.0000000000
      2304        18  POPC      HA             -7.5206412887      -20.3923665942       16.6435127770  MEMB      18              0.0000000000
      2305        18  POPC      HB             -7.3988228061      -21.3042204661       18.1506026940  MEMB      18              0.0000000000
      2306        18  POPC      C2             -6.1350839329      -22.1343551886       16.5781341330  MEMB      18              0.0000000000
      2307        18  POPC      HS             -6.1610043525      -23.0601070208       17.1918382115  MEMB      18              0.0000000000
      2308        18  POPC      O21            -4.7996360562      -21.8292488894       16.2093282101  MEMB      18              0.0000000000
      2309        18  POPC      C21            -3.9188874769      -22.7716084061       16.0388313968  MEMB      18              0.0000000000
      2310        18  POPC      O22            -4.0116366029      -23.9449539430       16.3245519929  MEMB      18              0.0000000000
      2311        18  POPC      C22            -2.7157867302      -22.1736583438       15.3895319706  MEMB      18              0.0000000000
      2312        18  POPC      H2R            -2.2081343660      -23.0556582719       14.9437901467  MEMB      18              0.0000000000
      2313        18  POPC      H2S            -2.1490561814      -21.7900568266       16.2647390120  MEMB      18              0.0000000000
      2314        18  POPC      C3             -6.8978390232      -22.4074126921       15.2320064062  MEMB      18              0.0000000000
      2315        18  POPC      HX             -7.9182122028      -22.6778505595       15.5784494371  MEMB      18              0.0000000000
      2316        18  POPC      HY             -6.3771864035      -23.2752000732       14.7735453595  MEMB      18              0.0000000000
      2317        18  POPC      O31            -6.8739722617      -21.2854696034       14.2821476201  MEMB      18              0.0000000000
      2318        18  POPC      C31            -7.9581313014      -21.2243080548       13.4321884233  MEMB      18              0.0000000000
      2319        18  POPC      O32            -8.9344645592      -21.9447542729       13.4079928910  MEMB      18              0.0000000000
      2320        18  POPC      C32            -7.7499507979      -20.0670850315       12.5107438111  MEMB      18              0.0000000000
      2321        18  POPC      H2X            -6.7808860682      -20.2540448120       12.0005668079  MEMB      18              0.0000000000
      2322        18  POPC      H2Y            -7.7340861457      -19.0922400450       13.0434223620  MEMB      18              0.0000000000
      2323        18  POPC      C23            -2.9490507501      -21.2760401743       14.1727537541  MEMB      18              0.0000000000
      2324        18  POPC      H3R            -3.3469189014      -20.3084251026       14.5465759751  MEMB      18              0.0000000000
      2325        18  POPC      H3S            -3.8077602671      -21.7977411866       13.6986578354  MEMB      18              0.0000000000
      2326        18  POPC      C24            -1.6878048321      -20.9453626853       13.3301347724  MEMB      18              0.0000000000
      2327        18  POPC      H4R            -1.2641777552      -21.9271631646       13.0285906924  MEMB      18              0.0000000000
      2328        18  POPC      H4S            -0.9919083157      -20.4150541659       14.0148403272  MEMB      18              0.0000000000
      2329        18  POPC      C25            -1.9227196484      -20.2295511858       11.9407656681  MEMB      18              0.0000000000
      2330        18  POPC      H5R            -0.9864949861      -19.6608964656       11.7551965204  MEMB      18              0.0000000000
      2331        18  POPC      H5S            -2.7129868694      -19.4527601962       11.8607990478  MEMB      18              0.0000000000
      2332        18  POPC      C26            -2.0602005585      -21.2791383694       10.8120023506  MEMB      18              0.0000000000
      2333        18  POPC      H6R            -3.0867632032      -21.6827779355       10.9445363491  MEMB      18              0.0000000000
      2334        18  POPC      H6S            -1.3686121831      -22.1164456889       11.0464024839  MEMB      18              0.0000000000
      2335        18  POPC      C27            -1.6883622074      -20.8977870183        9.4024587077  MEMB      18              0.0000000000
      2336        18  POPC      H7R            -1.9506670774      -21.7866942985        8.7897916912  MEMB      18              0.0000000000
      2337        18  POPC      H7S            -0.6165881403      -20.6300198778        9.5204514212  MEMB      18              0.0000000000
      2338        18  POPC      C28            -2.3806222840      -19.5803717168        9.0044340829  MEMB      18              0.0000000000
      2339        18  POPC      H8R            -1.8906439549      -19.2605942019        8.0599849430  MEMB      18              0.0000000000
      2340        18  POPC      H8S            -2.1763453257      -18.7715103231        9.7381469750  MEMB      18              0.0000000000
      2341        18  POPC      C29            -3.8371322430      -19.6854084648        8.7845611493  MEMB      18              0.0000000000
      2342        18  POPC      H91            -4.4507375390      -19.2558708933        9.5901575122  MEMB      18              0.0000000000
      2343        18  POPC      C210           -4.5529384366      -20.3458225563        7.7663972929  MEMB      18              0.0000000000
      2344        18  POPC      H101           -5.6388074829      -20.4089317885        7.9304271166  MEMB      18              0.0000000000
      2345        18  POPC      C211           -4.0009268082      -21.1338268497        6.6441509345  MEMB      18              0.0000000000
      2346        18  POPC      H11R           -4.2182417487      -22.2233651942        6.6453589663  MEMB      18              0.0000000000
      2347        18  POPC      H11S           -2.8906063731      -21.1541483816        6.6772686058  MEMB      18              0.0000000000
      2348        18  POPC      C212           -4.4572499744      -20.6690461574        5.2420692343  MEMB      18              0.0000000000
      2349        18  POPC      H12R           -5.4800028449      -20.2703595777        5.4133781681  MEMB      18              0.0000000000
      2350        18  POPC      H12S           -4.4844333099      -21.4625582951        4.4649462795  MEMB      18              0.0000000000
      2351        18  POPC      C213           -3.5531207085      -19.5327912099        4.7878378666  MEMB      18              0.0000000000
      2352        18  POPC      H13R           -3.2563081108      -18.8492567969        5.6118538717  MEMB      18              0.0000000000
      2353        18  POPC      H13S           -4.0590326449      -18.8836747570        4.0414982924  MEMB      18              0.0000000000
      2354        18  POPC      C214           -2.2264793748      -20.0288820764        4.1628286688  MEMB      18              0.0000000000
      2355        18  POPC      H14R           -1.6562347804      -20.4817589228        5.0019027762  MEMB      18              0.0000000000
      2356        18  POPC      H14S           -1.5578307691      -19.2211548664        3.7956686408  MEMB      18              0.0000000000
      2357        18  POPC      C215           -2.3361496383      -20.9842995650        2.9164021030  MEMB      18              0.0000000000
      2358        18  POPC      H15R           -2.5337709056      -21.9865519907        3.3531590804  MEMB      18              0.0000000000
      2359        18  POPC      H15S           -1.3668574277      -21.0567057909        2.3783038950  MEMB      18              0.0000000000
      2360        18  POPC      C216           -3.4437277820      -20.5651130577        1.9311112493  MEMB      18              0.0000000000
      2361        18  POPC      H16R           -4.3713379784      -20.2940392328        2.4791790682  MEMB      18              0.0000000000
      2362        18  POPC      H16S           -3.7429766706      -21.3432863216        1.1967965953  MEMB      18              0.0000000000
      2363        18  POPC      C217           -3.1089304812      -19.3289731961        1.0357865759  MEMB      18              0.0000000000
      2364        18  POPC      H17R           -3.1041051983      -18.4625720105        1.7312348091  MEMB      18              0.0000000000
      2365        18  POPC      H17S           -4.0026632140      -19.2188642512        0.3850647215  MEMB      18              0.0000000000
      2366        18  POPC      C218           -1.7961532703      -19.3227955171        0.2377779719  MEMB      18              0.0000000000
      2367        18  POPC      H18R           -0.8861529131      -19.4782504975        0.8558834123  MEMB      18              0.0000000000
      2368        18  POPC      H18S           -1.6184230660      -18.4180590779       -0.3820494121  MEMB      18              0.0000000000
      2369        18  POPC      H18T           -1.8017998583      -20.2744211022       -0.3355443130  MEMB      18              0.0000000000
      2370        18  POPC      C33            -8.8870931012      -20.1152452989       11.4111532292  MEMB      18              0.0000000000
      2371        18  POPC      H3X            -8.7937649822      -19.0866885124       11.0016637006  MEMB      18              0.0000000000
      2372        18  POPC      H3Y            -9.8850096597      -20.2088550135       11.8904450361  MEMB      18              0.0000000000
      2373        18  POPC      C34            -8.7162022728      -21.0525815295       10.2398029269  MEMB      18              0.0000000000
      2374        18  POPC      H4X            -8.3869838339      -22.0557168336       10.5857161029  MEMB      18              0.0000000000
      2375        18  POPC      H4Y            -7.9844542104      -20.4988008283        9.6135499408  MEMB      18              0.0000000000
      2376        18  POPC      C35            -9.9975182262      -21.1950827246        9.4704678047  MEMB      18              0.0000000000
      2377        18  POPC      H5X           -10.4363794113      -20.2110746080        9.1994506402  MEMB      18              0.0000000000
      2378        18  POPC      H5Y           -10.7594931076      -21.7560861948       10.0526967600  MEMB      18              0.0000000000
      2379        18  POPC      C36            -9.8076428328      -21.9074372537        8.1764138089  MEMB      18              0.0000000000
      2380        18  POPC      H6X           -10.7171660015      -21.9862721304        7.5432674535  MEMB      18              0.0000000000
      2381        18  POPC      H6Y            -9.3910689109      -22.9122392262        8.4026003285  MEMB      18              0.0000000000
      2382        18  POPC      C37            -8.9168520735      -21.1836606651        7.0647744538  MEMB      18              0.0000000000
      2383        18  POPC      H7X            -9.0277760583      -21.8360391513        6.1723512087  MEMB      18              0.0000000000
      2384        18  POPC      H7Y            -7.8812733291      -21.2268526529        7.4648145630  MEMB      18              0.0000000000
      2385        18  POPC      C38            -9.4379704333      -19.7600956600        6.6494087124  MEMB      18              0.0000000000
      2386        18  POPC      H8X            -9.4354260481      -19.0071288082        7.4663263985  MEMB      18              0.0000000000
      2387        18  POPC      H8Y           -10.4613569187      -19.8306446002        6.2227655912  MEMB      18              0.0000000000
      2388        18  POPC      C39            -8.5839703705      -19.1967754144        5.5431221232  MEMB      18              0.0000000000
      2389        18  POPC      H9X            -7.5514302513      -19.0500809660        5.9260869951  MEMB      18              0.0000000000
      2390        18  POPC      H9Y            -8.9954572025      -18.1935989583        5.3009723969  MEMB      18              0.0000000000
      2391        18  POPC      C310           -8.5772585184      -20.0019616668        4.3126548755  MEMB      18              0.0000000000
      2392        18  POPC      H10X           -9.6404019574      -20.2655506566        4.1267313096  MEMB      18              0.0000000000
      2393        18  POPC      H10Y           -8.1263592272      -21.0086703215        4.4451266850  MEMB      18              0.0000000000
      2394        18  POPC      C311           -8.0073742316      -19.3444217755        3.0597420799  MEMB      18              0.0000000000
      2395        18  POPC      H11X           -6.9426923391      -19.0694457190        3.2183665813  MEMB      18              0.0000000000
      2396        18  POPC      H11Y           -8.6198903516      -18.4201215007        2.9903590027  MEMB      18              0.0000000000
      2397        18  POPC      C312           -7.9975958534      -20.1232276079        1.7564822039  MEMB      18              0.0000000000
      2398        18  POPC      H12X           -9.0257511023      -20.5118603706        1.5946734410  MEMB      18              0.0000000000
      2399        18  POPC      H12Y           -7.3721784915      -21.0383420404        1.8322439768  MEMB      18              0.0000000000
      2400        18  POPC      C313           -7.6851989598      -19.3013611971        0.5473168302  MEMB      18              0.0000000000
      2401        18  POPC      H13X           -6.6339158723      -19.2321437974        0.1947076592  MEMB      18              0.0000000000
      2402        18  POPC      H13Y           -8.1705853468      -18.3133450499        0.6974685381  MEMB      18              0.0000000000
      2403        18  POPC      C314           -8.4234597994      -19.8007565582       -0.7141068993  MEMB      18              0.0000000000
      2404        18  POPC      H14X           -9.4998899299      -19.6041109186       -0.5218830552  MEMB      18              0.0000000000
      2405        18  POPC      H14Y           -8.2966126654      -20.8922677895       -0.8779201742  MEMB      18              0.0000000000
      2406        18  POPC      C315           -7.8319445684      -19.0867292704       -2.0357933555  MEMB      18              0.0000000000
      2407        18  POPC      H15X           -8.3426538141      -19.4977628385       -2.9327593240  MEMB      18              0.0000000000
      2408        18  POPC      H15Y           -6.7529082205      -19.3345824883       -2.1283686635  MEMB      18              0.0000000000
      2409        18  POPC      C316           -7.8185737074      -17.5873306802       -2.1170756897  MEMB      18              0.0000000000
      2410        18  POPC      H16X           -6.9836907704      -17.1543562862       -1.5256146360  MEMB      18              0.0000000000
      2411        18  POPC      H16Y           -8.8619943280      -17.2841934155       -1.8853368413  MEMB      18              0.0000000000
      2412        18  POPC      H16Z           -7.7241384198      -17.2964194572       -3.1851453357  MEMB      18              0.0000000000
      2413        19  POPC      N              18.8441262902       -2.8649609834       19.1899296462  MEMB      19              0.0000000000
      2414        19  POPC      C12            19.0127566135       -1.6818375565       20.2244722318  MEMB      19              0.0000000000
      2415        19  POPC      H12A           19.0938217891       -2.1836955178       21.1773451743  MEMB      19              0.0000000000
      2416        19  POPC      H12B           18.0919579582       -1.1194896458       20.2723743333  MEMB      19              0.0000000000
      2417        19  POPC      C13            20.0762495272       -3.6850293292       19.2394110901  MEMB      19              0.0000000000
      2418        19  POPC      H13A           20.9308268070       -3.1592663235       18.8398225878  MEMB      19              0.0000000000
      2419        19  POPC      H13B           20.2532552773       -4.0136456210       20.2528607133  MEMB      19              0.0000000000
      2420        19  POPC      H13C           19.9231293018       -4.5569854254       18.6208268644  MEMB      19              0.0000000000
      2421        19  POPC      C14            17.6926474181       -3.6672937190       19.6117259391  MEMB      19              0.0000000000
      2422        19  POPC      H14A           16.7302563129       -3.2117867359       19.4308478464  MEMB      19              0.0000000000
      2423        19  POPC      H14B           17.7074601647       -4.6251234840       19.1129845329  MEMB      19              0.0000000000
      2424        19  POPC      H14C           17.7509041266       -3.8575489257       20.6732384864  MEMB      19              0.0000000000
      2425        19  POPC      C15            18.6770386812       -2.3466423038       17.7937294932  MEMB      19              0.0000000000
      2426        19  POPC      H15A           18.0714438253       -1.4554972029       17.7194650341  MEMB      19              0.0000000000
      2427        19  POPC      H15B           18.5036487941       -3.1777836113       17.1262414754  MEMB      19              0.0000000000
      2428        19  POPC      H15C           19.6247816023       -1.9251651980       17.4928303400  MEMB      19              0.0000000000
      2429        19  POPC      C11            20.2155343402       -0.7938915723       20.1520392073  MEMB      19              0.0000000000
      2430        19  POPC      H11A           21.1428579978       -1.2732822768       20.5322711261  MEMB      19              0.0000000000
      2431        19  POPC      H11B           20.0286058931        0.0590498481       20.8389669264  MEMB      19              0.0000000000
      2432        19  POPC      P              20.7456551458        1.1847230873       18.6003112921  MEMB      19              0.0000000000
      2433        19  POPC      O13            21.8974224401        1.4885780367       19.4529227839  MEMB      19              0.0000000000
      2434        19  POPC      O14            19.4186042723        1.8188394279       18.8466256341  MEMB      19              0.0000000000
      2435        19  POPC      O12            20.4260935844       -0.3463895095       18.8247164454  MEMB      19              0.0000000000
      2436        19  POPC      O11            21.1008795181        1.2725542612       17.0641162406  MEMB      19              0.0000000000
      2437        19  POPC      C1             20.0561688971        0.8605706479       16.2277812881  MEMB      19              0.0000000000
      2438        19  POPC      HA             19.0448242185        1.0414915533       16.6505937839  MEMB      19              0.0000000000
      2439        19  POPC      HB             20.0969775976       -0.2253426676       15.9965932718  MEMB      19              0.0000000000
      2440        19  POPC      C2             20.1158154669        1.6389450387       14.9446042780  MEMB      19              0.0000000000
      2441        19  POPC      HS             19.5429592692        1.0984309046       14.1610218543  MEMB      19              0.0000000000
      2442        19  POPC      O21            21.4844177302        1.8569412491       14.6556812541  MEMB      19              0.0000000000
      2443        19  POPC      C21            21.9052967190        1.0479314305       13.6689157734  MEMB      19              0.0000000000
      2444        19  POPC      O22            21.2297387803        0.2072849484       13.1362658803  MEMB      19              0.0000000000
      2445        19  POPC      C22            23.2953424472        1.2899721000       13.4063669694  MEMB      19              0.0000000000
      2446        19  POPC      H2R            23.9562797557        1.1690217344       14.2911572606  MEMB      19              0.0000000000
      2447        19  POPC      H2S            23.4654707057        2.3343469768       13.0677548733  MEMB      19              0.0000000000
      2448        19  POPC      C3             19.4397815161        3.0373512058       15.0907112964  MEMB      19              0.0000000000
      2449        19  POPC      HX             20.0469290583        3.5298774170       15.8800848526  MEMB      19              0.0000000000
      2450        19  POPC      HY             18.4234325161        2.8221355343       15.4844595602  MEMB      19              0.0000000000
      2451        19  POPC      O31            19.7370789063        3.8278715722       13.9114172081  MEMB      19              0.0000000000
      2452        19  POPC      C31            18.8251476955        4.0437948048       13.0624981675  MEMB      19              0.0000000000
      2453        19  POPC      O32            17.6394245892        3.7143658530       13.0225450891  MEMB      19              0.0000000000
      2454        19  POPC      C32            19.5794826566        4.8368275965       11.8806382294  MEMB      19              0.0000000000
      2455        19  POPC      H2X            20.4749291083        4.2302888402       11.6264584881  MEMB      19              0.0000000000
      2456        19  POPC      H2Y            19.7373310132        5.8227453942       12.3678452302  MEMB      19              0.0000000000
      2457        19  POPC      C23            23.8266176581        0.3127536090       12.2878652047  MEMB      19              0.0000000000
      2458        19  POPC      H3R            23.3867307135       -0.6989972903       12.4189408737  MEMB      19              0.0000000000
      2459        19  POPC      H3S            24.9315244798        0.3610586454       12.3935471646  MEMB      19              0.0000000000
      2460        19  POPC      C24            23.3869630133        0.8229207512       10.9379244751  MEMB      19              0.0000000000
      2461        19  POPC      H4R            23.7227093381        1.8774481204       10.8401120814  MEMB      19              0.0000000000
      2462        19  POPC      H4S            22.2849091815        0.9636262852       10.9374014241  MEMB      19              0.0000000000
      2463        19  POPC      C25            23.9794856232       -0.0884271300        9.9160337810  MEMB      19              0.0000000000
      2464        19  POPC      H5R            23.4105254996       -1.0218580680       10.1143071579  MEMB      19              0.0000000000
      2465        19  POPC      H5S            25.0652763612       -0.0537553336       10.1487933300  MEMB      19              0.0000000000
      2466        19  POPC      C26            23.8182016468        0.3183632383        8.5029827274  MEMB      19              0.0000000000
      2467        19  POPC      H6R            24.0556952042        1.4026417779        8.4554676667  MEMB      19              0.0000000000
      2468        19  POPC      H6S            22.7484952502        0.2648136545        8.2077171128  MEMB      19              0.0000000000
      2469        19  POPC      C27            24.7521633722       -0.4960940587        7.6667936608  MEMB      19              0.0000000000
      2470        19  POPC      H7R            24.5087254436       -1.5677898455        7.8296648333  MEMB      19              0.0000000000
      2471        19  POPC      H7S            25.8120013064       -0.4126693545        7.9894464001  MEMB      19              0.0000000000
      2472        19  POPC      C28            24.6817681943       -0.1053274654        6.1476445827  MEMB      19              0.0000000000
      2473        19  POPC      H8R            23.5974285348       -0.0065322208        5.9268090940  MEMB      19              0.0000000000
      2474        19  POPC      H8S            25.1677416106       -0.8722372372        5.5073318672  MEMB      19              0.0000000000
      2475        19  POPC      C29            25.1276630806        1.3604817822        5.9861610478  MEMB      19              0.0000000000
      2476        19  POPC      H91            26.0521854555        1.7011859529        6.4752201579  MEMB      19              0.0000000000
      2477        19  POPC      C210           24.4927637331        2.3228184565        5.2776637429  MEMB      19              0.0000000000
      2478        19  POPC      H101           24.8761765207        3.3532090857        5.2417486917  MEMB      19              0.0000000000
      2479        19  POPC      C211           23.2219380652        2.1581309375        4.4717024049  MEMB      19              0.0000000000
      2480        19  POPC      H11R           22.9888589033        1.1105834153        4.1842319602  MEMB      19              0.0000000000
      2481        19  POPC      H11S           23.3617278147        2.7616097699        3.5494265608  MEMB      19              0.0000000000
      2482        19  POPC      C212           22.0893614704        2.8434711405        5.1421728252  MEMB      19              0.0000000000
      2483        19  POPC      H12R           22.2963145163        3.9197803637        5.3239688196  MEMB      19              0.0000000000
      2484        19  POPC      H12S           21.8614961955        2.3138365360        6.0918499112  MEMB      19              0.0000000000
      2485        19  POPC      C213           20.7725918758        2.6041046375        4.3068648052  MEMB      19              0.0000000000
      2486        19  POPC      H13R           19.8688643818        3.1407789462        4.6668347463  MEMB      19              0.0000000000
      2487        19  POPC      H13S           20.5993631270        1.5074062327        4.3464291490  MEMB      19              0.0000000000
      2488        19  POPC      C214           20.8621703260        3.0475358453        2.7478942651  MEMB      19              0.0000000000
      2489        19  POPC      H14R           21.5428621874        2.3463556482        2.2193811657  MEMB      19              0.0000000000
      2490        19  POPC      H14S           21.3164577110        4.0478950868        2.5828916100  MEMB      19              0.0000000000
      2491        19  POPC      C215           19.4818720387        2.9994453546        2.0761702896  MEMB      19              0.0000000000
      2492        19  POPC      H15R           18.8232430767        3.8006179928        2.4744816067  MEMB      19              0.0000000000
      2493        19  POPC      H15S           19.0202191010        2.0044180397        2.2525757782  MEMB      19              0.0000000000
      2494        19  POPC      C216           19.6387811842        3.2189605706        0.5470545461  MEMB      19              0.0000000000
      2495        19  POPC      H16R           20.6275958822        2.9571600937        0.1134341383  MEMB      19              0.0000000000
      2496        19  POPC      H16S           19.5060009004        4.2928116651        0.2949954774  MEMB      19              0.0000000000
      2497        19  POPC      C217           18.6333538178        2.4402517600       -0.4330776213  MEMB      19              0.0000000000
      2498        19  POPC      H17R           17.5877317216        2.7095058752       -0.1713560352  MEMB      19              0.0000000000
      2499        19  POPC      H17S           18.7843877015        1.3567569345       -0.2393035537  MEMB      19              0.0000000000
      2500        19  POPC      C218           18.5845127790        2.7070441327       -1.9275812687  MEMB      19              0.0000000000
      2501        19  POPC      H18R           18.8995149963        3.7613031214       -2.0813130998  MEMB      19              0.0000000000
      2502        19  POPC      H18S           17.5463454518        2.6740784432       -2.3218438676  MEMB      19              0.0000000000
      2503        19  POPC      H18T           19.2496211709        1.9841299426       -2.4465675219  MEMB      19              0.0000000000
      2504        19  POPC      C33            18.6235509527        5.1276971227       10.6790381281  MEMB      19              0.0000000000
      2505        19  POPC      H3X            19.2535103397        5.7314116232        9.9912871708  MEMB      19              0.0000000000
      2506        19  POPC      H3Y            17.8441308630        5.7621116874       11.1526871586  MEMB      19              0.0000000000
      2507        19  POPC      C34            18.1556745585        4.0466102196        9.7500934446  MEMB      19              0.0000000000
      2508        19  POPC      H4X            17.5483066631        4.4318531407        8.9033270200  MEMB      19              0.0000000000
      2509        19  POPC      H4Y            17.4122859805        3.3987011132       10.2618627062  MEMB      19              0.0000000000
      2510        19  POPC      C35            19.1740640761        3.1041729395        9.1574121323  MEMB      19              0.0000000000
      2511        19  POPC      H5X            19.7622789066        2.5156508829        9.8935960087  MEMB      19              0.0000000000
      2512        19  POPC      H5Y            20.0016147202        3.6031056702        8.6091906045  MEMB      19              0.0000000000
      2513        19  POPC      C36            18.5251813259        2.1089029625        8.2295016000  MEMB      19              0.0000000000
      2514        19  POPC      H6X            18.4499632598        2.6897495450        7.2854248815  MEMB      19              0.0000000000
      2515        19  POPC      H6Y            17.5201609897        1.8249023768        8.6084461533  MEMB      19              0.0000000000
      2516        19  POPC      C37            19.2974904665        0.7897839970        8.0055950266  MEMB      19              0.0000000000
      2517        19  POPC      H7X            19.5252890168        0.2908415370        8.9717648141  MEMB      19              0.0000000000
      2518        19  POPC      H7Y            20.2242352738        1.0429690192        7.4475967921  MEMB      19              0.0000000000
      2519        19  POPC      C38            18.4672139970       -0.2695623899        7.1878123495  MEMB      19              0.0000000000
      2520        19  POPC      H8X            18.4891754982       -0.0136147103        6.1069197925  MEMB      19              0.0000000000
      2521        19  POPC      H8Y            17.4300835383       -0.0974498633        7.5470598388  MEMB      19              0.0000000000
      2522        19  POPC      C39            19.0042531940       -1.7227106879        7.4118737143  MEMB      19              0.0000000000
      2523        19  POPC      H9X            18.5696101444       -2.4059449897        6.6512175410  MEMB      19              0.0000000000
      2524        19  POPC      H9Y            18.7181066444       -1.9920699429        8.4510492343  MEMB      19              0.0000000000
      2525        19  POPC      C310           20.4808616203       -1.8673922325        7.0526285814  MEMB      19              0.0000000000
      2526        19  POPC      H10X           20.7671724929       -2.9268959675        7.2252536300  MEMB      19              0.0000000000
      2527        19  POPC      H10Y           20.9961769370       -1.1833101875        7.7603027713  MEMB      19              0.0000000000
      2528        19  POPC      C311           20.8803135097       -1.6133084938        5.6086619638  MEMB      19              0.0000000000
      2529        19  POPC      H11X           21.9804816413       -1.7152523800        5.4922217143  MEMB      19              0.0000000000
      2530        19  POPC      H11Y           20.5446290258       -0.6342344456        5.2048672142  MEMB      19              0.0000000000
      2531        19  POPC      C312           20.3316930188       -2.6164257193        4.6270920441  MEMB      19              0.0000000000
      2532        19  POPC      H12X           19.2318514167       -2.4951052716        4.5273369302  MEMB      19              0.0000000000
      2533        19  POPC      H12Y           20.4585232160       -3.5759501212        5.1725719585  MEMB      19              0.0000000000
      2534        19  POPC      C313           21.0937113481       -2.6207387291        3.3067879083  MEMB      19              0.0000000000
      2535        19  POPC      H13X           20.6591241343       -3.4537457552        2.7138673571  MEMB      19              0.0000000000
      2536        19  POPC      H13Y           22.1936925302       -2.7290452292        3.4191834981  MEMB      19              0.0000000000
      2537        19  POPC      C314           20.9878464890       -1.3516079524        2.4229064411  MEMB      19              0.0000000000
      2538        19  POPC      H14X           21.3544774869       -0.4236019094        2.9114833647  MEMB      19              0.0000000000
      2539        19  POPC      H14Y           19.9444088403       -1.1695618293        2.0876175502  MEMB      19              0.0000000000
      2540        19  POPC      C315           21.8729012000       -1.4040478296        1.1138767791  MEMB      19              0.0000000000
      2541        19  POPC      H15X           21.6330147136       -2.3902140512        0.6619344550  MEMB      19              0.0000000000
      2542        19  POPC      H15Y           22.9312786933       -1.4529527442        1.4481912635  MEMB      19              0.0000000000
      2543        19  POPC      C316           21.6028629692       -0.2373064055        0.0943111026  MEMB      19              0.0000000000
      2544        19  POPC      H16X           20.6406154810       -0.4467156939       -0.4200319900  MEMB      19              0.0000000000
      2545        19  POPC      H16Y           22.4274291156       -0.3142960935       -0.6462867527  MEMB      19              0.0000000000
      2546        19  POPC      H16Z           21.4201015601        0.7345408989        0.6007029815  MEMB      19              0.0000000000
      2547        20  POPC      N             -18.8595329960       11.2245248884       20.3506728033  MEMB      20              0.0000000000
      2548        20  POPC      C12           -17.7324028439       10.1574230988       20.6153209591  MEMB      20              0.0000000000
      2549        20  POPC      H12A          -18.1104177723        9.4480617148       21.3366468793  MEMB      20              0.0000000000
      2550        20  POPC      H12B          -16.8532940285       10.6204449359       21.0386154834  MEMB      20              0.0000000000
      2551        20  POPC      C13           -20.2049817036       10.5356573232       20.2389511385  MEMB      20              0.0000000000
      2552        20  POPC      H13A          -21.0158439443       11.2485365975       20.2123840557  MEMB      20              0.0000000000
      2553        20  POPC      H13B          -20.2902651656        9.7638204601       19.4883548989  MEMB      20              0.0000000000
      2554        20  POPC      H13C          -20.3268129953       10.0078178572       21.1732650747  MEMB      20              0.0000000000
      2555        20  POPC      C14           -18.8386563841       12.2061914526       21.5009527139  MEMB      20              0.0000000000
      2556        20  POPC      H14A          -19.4152384793       13.0577271327       21.1710436154  MEMB      20              0.0000000000
      2557        20  POPC      H14B          -19.2589575058       11.8362774540       22.4244841139  MEMB      20              0.0000000000
      2558        20  POPC      H14C          -17.8610590926       12.5848210961       21.7604583493  MEMB      20              0.0000000000
      2559        20  POPC      C15           -18.5896947312       11.9758569151       19.1699994759  MEMB      20              0.0000000000
      2560        20  POPC      H15A          -17.6067186950       12.4229053201       19.1525087655  MEMB      20              0.0000000000
      2561        20  POPC      H15B          -19.4181586110       12.6268869281       18.9329181208  MEMB      20              0.0000000000
      2562        20  POPC      H15C          -18.7344296481       11.2430909299       18.3899316640  MEMB      20              0.0000000000
      2563        20  POPC      C11           -17.0482870163        9.4278836353       19.3938369302  MEMB      20              0.0000000000
      2564        20  POPC      H11A          -17.8646489655        8.9443637659       18.8158380169  MEMB      20              0.0000000000
      2565        20  POPC      H11B          -16.3546509928        8.6314995981       19.7387465851  MEMB      20              0.0000000000
      2566        20  POPC      P             -15.2291976729        9.8882232802       17.5497113665  MEMB      20              0.0000000000
      2567        20  POPC      O13           -14.4281160077        8.7669934941       18.1093987828  MEMB      20              0.0000000000
      2568        20  POPC      O14           -14.5119135801       11.1495348496       17.2794776729  MEMB      20              0.0000000000
      2569        20  POPC      O12           -16.3247150390       10.2891202995       18.5647283835  MEMB      20              0.0000000000
      2570        20  POPC      O11           -15.9850934132        9.4096333164       16.2269497765  MEMB      20              0.0000000000
      2571        20  POPC      C1            -16.2050453759        8.0257462460       16.1423211467  MEMB      20              0.0000000000
      2572        20  POPC      HA            -16.5400791110        7.4733702593       17.0461762818  MEMB      20              0.0000000000
      2573        20  POPC      HB            -15.2788629423        7.5424529717       15.7642542059  MEMB      20              0.0000000000
      2574        20  POPC      C2            -17.2657677534        7.7306331228       15.0460218233  MEMB      20              0.0000000000
      2575        20  POPC      HS            -17.2161194102        6.6635056141       14.7409072017  MEMB      20              0.0000000000
      2576        20  POPC      O21           -17.0104153155        8.5052757710       13.8683556067  MEMB      20              0.0000000000
      2577        20  POPC      C21           -16.0881142041        7.8882739809       13.0888101940  MEMB      20              0.0000000000
      2578        20  POPC      O22           -15.6723481699        6.7713040141       13.3452617690  MEMB      20              0.0000000000
      2579        20  POPC      C22           -15.5475240632        8.7382337845       11.9223786663  MEMB      20              0.0000000000
      2580        20  POPC      H2R           -14.4473849313        8.8653206181       12.0110580335  MEMB      20              0.0000000000
      2581        20  POPC      H2S           -16.0030540797        9.7466700222       12.0217262539  MEMB      20              0.0000000000
      2582        20  POPC      C3            -18.6851996312        8.1604108373       15.4697194818  MEMB      20              0.0000000000
      2583        20  POPC      HX            -18.9492925331        7.5897024736       16.3856167395  MEMB      20              0.0000000000
      2584        20  POPC      HY            -19.4112883722        7.8294906905       14.6966681501  MEMB      20              0.0000000000
      2585        20  POPC      O31           -18.6376695546        9.6214497237       15.5616726576  MEMB      20              0.0000000000
      2586        20  POPC      C31           -19.4936163587       10.3633135861       14.9293114499  MEMB      20              0.0000000000
      2587        20  POPC      O32           -20.5889931589        9.9114839071       14.4874306433  MEMB      20              0.0000000000
      2588        20  POPC      C32           -18.9969077589       11.8091208148       14.8172782068  MEMB      20              0.0000000000
      2589        20  POPC      H2X           -17.9577245743       11.9614347249       15.1795208346  MEMB      20              0.0000000000
      2590        20  POPC      H2Y           -19.5798786157       12.3868879134       15.5660445170  MEMB      20              0.0000000000
      2591        20  POPC      C23           -15.7719851131        8.1916347021       10.5227685570  MEMB      20              0.0000000000
      2592        20  POPC      H3R           -16.8639224445        8.1531274912       10.3214950814  MEMB      20              0.0000000000
      2593        20  POPC      H3S           -15.2771844647        7.2391028910       10.2361048900  MEMB      20              0.0000000000
      2594        20  POPC      C24           -15.1356616174        9.1587640995        9.5373603133  MEMB      20              0.0000000000
      2595        20  POPC      H4R           -14.0653379359        9.2549642005        9.8192721403  MEMB      20              0.0000000000
      2596        20  POPC      H4S           -15.5613133017       10.1834709927        9.5931939078  MEMB      20              0.0000000000
      2597        20  POPC      C25           -15.2216073905        8.7212148183        8.1094600018  MEMB      20              0.0000000000
      2598        20  POPC      H5R           -16.2180166588        8.7924323674        7.6232318671  MEMB      20              0.0000000000
      2599        20  POPC      H5S           -15.0267533560        7.6477202587        7.8997879121  MEMB      20              0.0000000000
      2600        20  POPC      C26           -14.1555778836        9.4834270774        7.3215748754  MEMB      20              0.0000000000
      2601        20  POPC      H6R           -13.1642157370        9.1294529728        7.6768559293  MEMB      20              0.0000000000
      2602        20  POPC      H6S           -14.3489362643       10.5275694108        7.6482247097  MEMB      20              0.0000000000
      2603        20  POPC      C27           -14.2578201451        9.3896342079        5.7328687444  MEMB      20              0.0000000000
      2604        20  POPC      H7R           -13.7577390313       10.2848037352        5.3051877089  MEMB      20              0.0000000000
      2605        20  POPC      H7S           -15.3254413590        9.2737990845        5.4481086913  MEMB      20              0.0000000000
      2606        20  POPC      C28           -13.5003195616        8.1566558571        5.2084357211  MEMB      20              0.0000000000
      2607        20  POPC      H8R           -13.7562145449        7.1909730215        5.6945377566  MEMB      20              0.0000000000
      2608        20  POPC      H8S           -12.4503205584        8.4195464282        5.4588580560  MEMB      20              0.0000000000
      2609        20  POPC      C29           -13.4512397663        8.0152316827        3.7169667032  MEMB      20              0.0000000000
      2610        20  POPC      H91           -12.7535196485        8.7075193249        3.2230793232  MEMB      20              0.0000000000
      2611        20  POPC      C210          -14.1277951916        7.2059690120        2.9588088192  MEMB      20              0.0000000000
      2612        20  POPC      H101          -14.1467107999        7.4280913102        1.8816343295  MEMB      20              0.0000000000
      2613        20  POPC      C211          -15.1061004589        6.1436522160        3.5110838207  MEMB      20              0.0000000000
      2614        20  POPC      H11R          -15.4455401721        6.4293639976        4.5296469743  MEMB      20              0.0000000000
      2615        20  POPC      H11S          -14.6458667675        5.1331783708        3.5491500227  MEMB      20              0.0000000000
      2616        20  POPC      C212          -16.2590686383        5.8687618381        2.5770413610  MEMB      20              0.0000000000
      2617        20  POPC      H12R          -16.7364559441        4.9620284410        3.0062927033  MEMB      20              0.0000000000
      2618        20  POPC      H12S          -15.7825495480        5.5555943036        1.6235332523  MEMB      20              0.0000000000
      2619        20  POPC      C213          -17.2586171398        6.9720766783        2.3013106120  MEMB      20              0.0000000000
      2620        20  POPC      H13R          -18.0799165415        6.6415521821        1.6300873442  MEMB      20              0.0000000000
      2621        20  POPC      H13S          -16.7392606377        7.7722280708        1.7317952507  MEMB      20              0.0000000000
      2622        20  POPC      C214          -17.8371337000        7.5308183161        3.6342149646  MEMB      20              0.0000000000
      2623        20  POPC      H14R          -18.6607801831        8.2346729204        3.3882140399  MEMB      20              0.0000000000
      2624        20  POPC      H14S          -17.0881592259        8.0906992401        4.2341239148  MEMB      20              0.0000000000
      2625        20  POPC      C215          -18.5819197555        6.4887264538        4.5097785956  MEMB      20              0.0000000000
      2626        20  POPC      H15R          -18.9851744868        7.0606612085        5.3726792961  MEMB      20              0.0000000000
      2627        20  POPC      H15S          -18.0377883562        5.6283470977        4.9547386394  MEMB      20              0.0000000000
      2628        20  POPC      C216          -19.7262081610        5.7257440389        3.8024754170  MEMB      20              0.0000000000
      2629        20  POPC      H16R          -20.3992578408        5.1547651703        4.4772406990  MEMB      20              0.0000000000
      2630        20  POPC      H16S          -19.1695570628        5.0136588913        3.1564138816  MEMB      20              0.0000000000
      2631        20  POPC      C217          -20.6981801536        6.6207096879        2.9424335251  MEMB      20              0.0000000000
      2632        20  POPC      H17R          -20.0189939315        7.0877833836        2.1975383653  MEMB      20              0.0000000000
      2633        20  POPC      H17S          -21.1119077673        7.4061361072        3.6104571971  MEMB      20              0.0000000000
      2634        20  POPC      C218          -21.7643920461        5.7699755848        2.2688830687  MEMB      20              0.0000000000
      2635        20  POPC      H18R          -22.5765907450        5.6075233012        3.0093298380  MEMB      20              0.0000000000
      2636        20  POPC      H18S          -21.2574662619        4.8471516573        1.9142781452  MEMB      20              0.0000000000
      2637        20  POPC      H18T          -22.2483372249        6.3354108378        1.4440181113  MEMB      20              0.0000000000
      2638        20  POPC      C33           -19.2706245874       12.4108381044       13.4487467780  MEMB      20              0.0000000000
      2639        20  POPC      H3X           -18.8163605197       13.4218149903       13.5254991316  MEMB      20              0.0000000000
      2640        20  POPC      H3Y           -20.3462435146       12.6374910281       13.2875219260  MEMB      20              0.0000000000
      2641        20  POPC      C34           -18.7008125708       11.6377361478       12.2994207025  MEMB      20              0.0000000000
      2642        20  POPC      H4X           -18.9817598126       10.5633301781       12.3316962607  MEMB      20              0.0000000000
      2643        20  POPC      H4Y           -17.6171779820       11.5129826968       12.5103559704  MEMB      20              0.0000000000
      2644        20  POPC      C35           -18.8051760511       12.3884176989       10.9819168888  MEMB      20              0.0000000000
      2645        20  POPC      H5X           -18.2802982450       13.3528693794       11.1512016924  MEMB      20              0.0000000000
      2646        20  POPC      H5Y           -19.8927991839       12.4332827098       10.7596922103  MEMB      20              0.0000000000
      2647        20  POPC      C36           -18.0679345890       11.7325019722        9.7681397259  MEMB      20              0.0000000000
      2648        20  POPC      H6X           -18.5346141176       10.7242847939        9.7627030183  MEMB      20              0.0000000000
      2649        20  POPC      H6Y           -17.0163286998       11.9391657859       10.0609468014  MEMB      20              0.0000000000
      2650        20  POPC      C37           -18.2129481295       12.3821788361        8.4476792117  MEMB      20              0.0000000000
      2651        20  POPC      H7X           -17.7367042043       13.3780262585        8.5733778714  MEMB      20              0.0000000000
      2652        20  POPC      H7Y           -19.2665824579       12.4963418228        8.1142985364  MEMB      20              0.0000000000
      2653        20  POPC      C38           -17.5147562225       11.6554321678        7.2703057866  MEMB      20              0.0000000000
      2654        20  POPC      H8X           -17.5949605219       10.5473820973        7.2596927086  MEMB      20              0.0000000000
      2655        20  POPC      H8Y           -16.4309718236       11.8857258261        7.3521440725  MEMB      20              0.0000000000
      2656        20  POPC      C39           -17.8695649817       12.1069265847        5.8043905702  MEMB      20              0.0000000000
      2657        20  POPC      H9X           -17.8257239165       13.2047478034        5.9692757705  MEMB      20              0.0000000000
      2658        20  POPC      H9Y           -18.8804952276       11.7751115114        5.4846415429  MEMB      20              0.0000000000
      2659        20  POPC      C310          -16.7227893773       11.6873636726        4.8447131104  MEMB      20              0.0000000000
      2660        20  POPC      H10X          -16.7047520780       10.5809782840        4.9442473884  MEMB      20              0.0000000000
      2661        20  POPC      H10Y          -15.7745732284       12.0976567814        5.2532057047  MEMB      20              0.0000000000
      2662        20  POPC      C311          -16.8400692694       12.0481709993        3.3629776846  MEMB      20              0.0000000000
      2663        20  POPC      H11X          -15.8791078340       11.8148686356        2.8565739148  MEMB      20              0.0000000000
      2664        20  POPC      H11Y          -16.9679568768       13.1504925789        3.4163890915  MEMB      20              0.0000000000
      2665        20  POPC      C312          -18.0314749625       11.3735415830        2.7591892592  MEMB      20              0.0000000000
      2666        20  POPC      H12X          -18.8924331853       11.8509852683        3.2740866899  MEMB      20              0.0000000000
      2667        20  POPC      H12Y          -18.1355886602       10.3043376424        3.0425341694  MEMB      20              0.0000000000
      2668        20  POPC      C313          -18.1270179375       11.6378014622        1.2748651485  MEMB      20              0.0000000000
      2669        20  POPC      H13X          -18.1131135855       12.7436956785        1.1693867511  MEMB      20              0.0000000000
      2670        20  POPC      H13Y          -19.1247177651       11.3405209650        0.8868707522  MEMB      20              0.0000000000
      2671        20  POPC      C314          -17.1223797788       11.0539560015        0.3474046135  MEMB      20              0.0000000000
      2672        20  POPC      H14X          -17.0002164114        9.9585609638        0.4870717207  MEMB      20              0.0000000000
      2673        20  POPC      H14Y          -16.1212002699       11.5085682934        0.5064274673  MEMB      20              0.0000000000
      2674        20  POPC      C315          -17.5261223598       10.9287403634       -1.1500324712  MEMB      20              0.0000000000
      2675        20  POPC      H15X          -17.6980326376       11.9990651990       -1.3932856131  MEMB      20              0.0000000000
      2676        20  POPC      H15Y          -18.5546548198       10.5096614532       -1.1214840673  MEMB      20              0.0000000000
      2677        20  POPC      C316          -16.6314203793       10.0858695081       -2.0266943236  MEMB      20              0.0000000000
      2678        20  POPC      H16X          -15.5727939804       10.4155124193       -2.0971693128  MEMB      20              0.0000000000
      2679        20  POPC      H16Y          -16.9266184803        9.7908311014       -3.0563209703  MEMB      20              0.0000000000
      2680        20  POPC      H16Z          -16.4896971075        9.1076630896       -1.5193995490  MEMB      20              0.0000000000
      2681        21  POPC      N              19.0416771762       -7.3297395652       19.2683039316  MEMB      21              0.0000000000
      2682        21  POPC      C12            18.1039821560       -8.0505682149       20.2320222458  MEMB      21              0.0000000000
      2683        21  POPC      H12A           17.6848357138       -7.2681309795       20.8472524510  MEMB      21              0.0000000000
      2684        21  POPC      H12B           18.6357430563       -8.7611970516       20.8473571548  MEMB      21              0.0000000000
      2685        21  POPC      C13            18.1498059904       -6.6221811935       18.1962120471  MEMB      21              0.0000000000
      2686        21  POPC      H13A           17.5781166009       -7.3891434509       17.6948734706  MEMB      21              0.0000000000
      2687        21  POPC      H13B           17.4549130871       -5.9760887734       18.7120495121  MEMB      21              0.0000000000
      2688        21  POPC      H13C           18.8399401777       -6.2144461043       17.4724256716  MEMB      21              0.0000000000
      2689        21  POPC      C14            19.7702907375       -6.2064895832       20.0230313224  MEMB      21              0.0000000000
      2690        21  POPC      H14A           20.3306148775       -6.6042201092       20.8562464854  MEMB      21              0.0000000000
      2691        21  POPC      H14B           20.3877642298       -5.6712031963       19.3169186021  MEMB      21              0.0000000000
      2692        21  POPC      H14C           19.0234721606       -5.5059782853       20.3664639502  MEMB      21              0.0000000000
      2693        21  POPC      C15            19.9084519890       -8.3256697755       18.6353583523  MEMB      21              0.0000000000
      2694        21  POPC      H15A           20.7431365529       -8.6520778890       19.2379854611  MEMB      21              0.0000000000
      2695        21  POPC      H15B           20.1231105712       -7.9632249051       17.6408960016  MEMB      21              0.0000000000
      2696        21  POPC      H15C           19.3038355584       -9.2147044655       18.5331020352  MEMB      21              0.0000000000
      2697        21  POPC      C11            16.8910042093       -8.7928803033       19.5341747265  MEMB      21              0.0000000000
      2698        21  POPC      H11A           16.2225493400       -8.0968813148       18.9836527997  MEMB      21              0.0000000000
      2699        21  POPC      H11B           16.1899112184       -9.1526470161       20.3173461727  MEMB      21              0.0000000000
      2700        21  POPC      P              16.8141729774      -11.2500262912       18.6346439427  MEMB      21              0.0000000000
      2701        21  POPC      O13            15.7707865818      -11.3252875718       17.5746924501  MEMB      21              0.0000000000
      2702        21  POPC      O14            16.5169022032      -11.6441087538       20.0440850049  MEMB      21              0.0000000000
      2703        21  POPC      O12            17.4444125988       -9.7850363318       18.5989641660  MEMB      21              0.0000000000
      2704        21  POPC      O11            18.1133902645      -12.0657834730       18.2585118020  MEMB      21              0.0000000000
      2705        21  POPC      C1             19.2854330681      -12.0567965147       19.0478227615  MEMB      21              0.0000000000
      2706        21  POPC      HA             19.5417049538      -12.9724689206       19.6224440973  MEMB      21              0.0000000000
      2707        21  POPC      HB             19.3600562707      -11.1945414946       19.7444352337  MEMB      21              0.0000000000
      2708        21  POPC      C2             20.5341994220      -11.8504475474       18.0647443373  MEMB      21              0.0000000000
      2709        21  POPC      HS             21.4018318165      -11.6278217876       18.7219907697  MEMB      21              0.0000000000
      2710        21  POPC      O21            20.3450758551      -10.8929076540       17.0073303431  MEMB      21              0.0000000000
      2711        21  POPC      C21            21.4904816575      -10.4820584760       16.3301801168  MEMB      21              0.0000000000
      2712        21  POPC      O22            22.6028733635      -10.7050136867       16.6679135154  MEMB      21              0.0000000000
      2713        21  POPC      C22            21.0492941102       -9.5916170622       15.1005763296  MEMB      21              0.0000000000
      2714        21  POPC      H2R            20.4726307128       -8.7389775795       15.5186511906  MEMB      21              0.0000000000
      2715        21  POPC      H2S            20.5169068522      -10.3100992438       14.4412827402  MEMB      21              0.0000000000
      2716        21  POPC      C3             20.7837981249      -13.1973708218       17.3771944702  MEMB      21              0.0000000000
      2717        21  POPC      HX             20.9265529618      -13.9315604589       18.1987220325  MEMB      21              0.0000000000
      2718        21  POPC      HY             21.7163319676      -13.2581036838       16.7763510080  MEMB      21              0.0000000000
      2719        21  POPC      O31            19.5980599327      -13.5563759382       16.6771658780  MEMB      21              0.0000000000
      2720        21  POPC      C31            19.7790977682      -14.0748900092       15.4433126470  MEMB      21              0.0000000000
      2721        21  POPC      O32            20.8553890364      -14.4815281844       14.9580451835  MEMB      21              0.0000000000
      2722        21  POPC      C32            18.4315224899      -14.3738381604       14.8080594787  MEMB      21              0.0000000000
      2723        21  POPC      H2X            17.9941396622      -15.3090279932       15.2184705040  MEMB      21              0.0000000000
      2724        21  POPC      H2Y            18.6314600852      -14.4871000198       13.7210827350  MEMB      21              0.0000000000
      2725        21  POPC      C23            22.1814422188       -8.9527041624       14.2763440157  MEMB      21              0.0000000000
      2726        21  POPC      H3R            22.7915688231       -9.7163214680       13.7481816981  MEMB      21              0.0000000000
      2727        21  POPC      H3S            22.9399112896       -8.5873038717       15.0012775449  MEMB      21              0.0000000000
      2728        21  POPC      C24            21.8653402773       -7.6600910345       13.4832400571  MEMB      21              0.0000000000
      2729        21  POPC      H4R            22.6720492732       -6.9798067576       13.1357428919  MEMB      21              0.0000000000
      2730        21  POPC      H4S            21.3369324179       -7.1054104037       14.2878742377  MEMB      21              0.0000000000
      2731        21  POPC      C25            20.7807042766       -7.8613862936       12.3508884727  MEMB      21              0.0000000000
      2732        21  POPC      H5R            21.0031087549       -7.0694595919       11.6040890060  MEMB      21              0.0000000000
      2733        21  POPC      H5S            19.7301948060       -7.7884068842       12.7050425783  MEMB      21              0.0000000000
      2734        21  POPC      C26            21.1305111351       -9.1255429105       11.5066187332  MEMB      21              0.0000000000
      2735        21  POPC      H6R            21.0530237566       -9.9534301264       12.2434494458  MEMB      21              0.0000000000
      2736        21  POPC      H6S            22.2203766310       -9.0745215770       11.2970693470  MEMB      21              0.0000000000
      2737        21  POPC      C27            20.2732802874       -9.3165983965       10.2771629666  MEMB      21              0.0000000000
      2738        21  POPC      H7R            19.2041835487       -9.2390594456       10.5692944555  MEMB      21              0.0000000000
      2739        21  POPC      H7S            20.3510919279      -10.3675662175        9.9254057003  MEMB      21              0.0000000000
      2740        21  POPC      C28            20.6980367924       -8.4346327177        9.1577519802  MEMB      21              0.0000000000
      2741        21  POPC      H8R            21.7520061139       -8.6257413436        8.8628830897  MEMB      21              0.0000000000
      2742        21  POPC      H8S            20.7494159913       -7.3742215418        9.4851796311  MEMB      21              0.0000000000
      2743        21  POPC      C29            19.7660908939       -8.4395455677        7.9241609836  MEMB      21              0.0000000000
      2744        21  POPC      H91            19.0283888568       -7.6235837822        7.9256496462  MEMB      21              0.0000000000
      2745        21  POPC      C210           19.8776319954       -9.1460940105        6.7551053639  MEMB      21              0.0000000000
      2746        21  POPC      H101           19.1495346392       -9.0133011773        5.9413236087  MEMB      21              0.0000000000
      2747        21  POPC      C211           20.9920202687      -10.1143734788        6.4790492371  MEMB      21              0.0000000000
      2748        21  POPC      H11R           20.5983677123      -11.1530831287        6.5000482342  MEMB      21              0.0000000000
      2749        21  POPC      H11S           21.7842047766      -10.0331324818        7.2537517292  MEMB      21              0.0000000000
      2750        21  POPC      C212           21.6707051470       -9.8528047611        5.0969120884  MEMB      21              0.0000000000
      2751        21  POPC      H12R           22.1115962023       -8.8425080790        4.9582155568  MEMB      21              0.0000000000
      2752        21  POPC      H12S           20.8983090765      -10.0744942781        4.3297227678  MEMB      21              0.0000000000
      2753        21  POPC      C213           22.8758623174      -10.8436997773        4.8957651274  MEMB      21              0.0000000000
      2754        21  POPC      H13R           22.4431106079      -11.8504045269        5.0790475365  MEMB      21              0.0000000000
      2755        21  POPC      H13S           23.7044564760      -10.8004018030        5.6346006140  MEMB      21              0.0000000000
      2756        21  POPC      C214           23.4010956913      -10.8239841132        3.4431416889  MEMB      21              0.0000000000
      2757        21  POPC      H14R           24.1633876011      -10.0157587301        3.4410636179  MEMB      21              0.0000000000
      2758        21  POPC      H14S           22.6586503157      -10.3818546920        2.7448452019  MEMB      21              0.0000000000
      2759        21  POPC      C215           23.9483184539      -12.1019460053        2.7809017728  MEMB      21              0.0000000000
      2760        21  POPC      H15R           23.2268128211      -12.9451866179        2.8328249941  MEMB      21              0.0000000000
      2761        21  POPC      H15S           24.6683826899      -12.3690516667        3.5836987312  MEMB      21              0.0000000000
      2762        21  POPC      C216           24.4850451406      -11.9883718160        1.4286636994  MEMB      21              0.0000000000
      2763        21  POPC      H16R           25.0694835792      -12.8698253289        1.0883797965  MEMB      21              0.0000000000
      2764        21  POPC      H16S           25.1530927089      -11.1124049081        1.5725922788  MEMB      21              0.0000000000
      2765        21  POPC      C217           23.3095608490      -11.7670341512        0.3914456130  MEMB      21              0.0000000000
      2766        21  POPC      H17R           23.3399968786      -10.6664199137        0.2429768847  MEMB      21              0.0000000000
      2767        21  POPC      H17S           22.3303620915      -12.1221127735        0.7779815300  MEMB      21              0.0000000000
      2768        21  POPC      C218           23.5440966783      -12.5674940850       -0.8946543918  MEMB      21              0.0000000000
      2769        21  POPC      H18R           23.7022237691      -13.6456267883       -0.6779831000  MEMB      21              0.0000000000
      2770        21  POPC      H18S           24.4377664328      -12.2425668776       -1.4691951546  MEMB      21              0.0000000000
      2771        21  POPC      H18T           22.6941525960      -12.4000346016       -1.5902647184  MEMB      21              0.0000000000
      2772        21  POPC      C33            17.4339667210      -13.2266025346       15.0628301729  MEMB      21              0.0000000000
      2773        21  POPC      H3X            17.7032373041      -12.7006562965       16.0036780539  MEMB      21              0.0000000000
      2774        21  POPC      H3Y            16.4561314294      -13.7150100116       15.2618718737  MEMB      21              0.0000000000
      2775        21  POPC      C34            17.2615067881      -12.2276785065       13.9756797638  MEMB      21              0.0000000000
      2776        21  POPC      H4X            17.0243536140      -12.8424793295       13.0811969208  MEMB      21              0.0000000000
      2777        21  POPC      H4Y            18.2579140311      -11.7900487891       13.7521313016  MEMB      21              0.0000000000
      2778        21  POPC      C35            16.0857945024      -11.2631965454       14.1919387577  MEMB      21              0.0000000000
      2779        21  POPC      H5X            16.4245050400      -10.5776709004       14.9979479720  MEMB      21              0.0000000000
      2780        21  POPC      H5Y            15.1581414866      -11.7931223903       14.4968322751  MEMB      21              0.0000000000
      2781        21  POPC      C36            15.7369331860      -10.3804635860       12.9600896646  MEMB      21              0.0000000000
      2782        21  POPC      H6X            16.6067095362       -9.7403923544       12.6990939017  MEMB      21              0.0000000000
      2783        21  POPC      H6Y            14.9543182083       -9.6641352587       13.2897992229  MEMB      21              0.0000000000
      2784        21  POPC      C37            15.4838582156      -11.2761564361       11.6930062539  MEMB      21              0.0000000000
      2785        21  POPC      H7X            14.8554533124      -12.1512664490       11.9643188754  MEMB      21              0.0000000000
      2786        21  POPC      H7Y            16.4434424309      -11.6552943772       11.2809698300  MEMB      21              0.0000000000
      2787        21  POPC      C38            14.7187147657      -10.3588235789       10.6478997047  MEMB      21              0.0000000000
      2788        21  POPC      H8X            15.2061813881       -9.3633889836       10.7241082284  MEMB      21              0.0000000000
      2789        21  POPC      H8Y            13.6421962742      -10.2918949332       10.9142631779  MEMB      21              0.0000000000
      2790        21  POPC      C39            14.8736883038      -10.8169857801        9.2063021370  MEMB      21              0.0000000000
      2791        21  POPC      H9X            14.1981142505      -10.2908342112        8.4984285946  MEMB      21              0.0000000000
      2792        21  POPC      H9Y            14.7228329002      -11.9169607677        9.1660681105  MEMB      21              0.0000000000
      2793        21  POPC      C310           16.3313813869      -10.4482113184        8.6273896616  MEMB      21              0.0000000000
      2794        21  POPC      H10X           17.1684149645      -10.4628319527        9.3577885165  MEMB      21              0.0000000000
      2795        21  POPC      H10Y           16.1819547655       -9.3806496101        8.3584944537  MEMB      21              0.0000000000
      2796        21  POPC      C311           16.6301907613      -11.1408449760        7.3401564062  MEMB      21              0.0000000000
      2797        21  POPC      H11X           16.4581569750      -12.2371781058        7.3928740189  MEMB      21              0.0000000000
      2798        21  POPC      H11Y           17.7152874966      -10.9663790754        7.1775296383  MEMB      21              0.0000000000
      2799        21  POPC      C312           15.7587355830      -10.6955817995        6.1551349833  MEMB      21              0.0000000000
      2800        21  POPC      H12X           15.8313902022       -9.6058672411        5.9512618378  MEMB      21              0.0000000000
      2801        21  POPC      H12Y           14.7083869852      -10.9773124659        6.3825491352  MEMB      21              0.0000000000
      2802        21  POPC      C313           16.1147105352      -11.3752151182        4.8065912412  MEMB      21              0.0000000000
      2803        21  POPC      H13X           15.3458149854      -11.1020441403        4.0526029861  MEMB      21              0.0000000000
      2804        21  POPC      H13Y           16.1336932593      -12.4850103147        4.8547080576  MEMB      21              0.0000000000
      2805        21  POPC      C314           17.4370512839      -10.8768197520        4.1812194385  MEMB      21              0.0000000000
      2806        21  POPC      H14X           18.3027950791      -10.9451770700        4.8741378658  MEMB      21              0.0000000000
      2807        21  POPC      H14Y           17.4795728186       -9.7894786522        3.9571607431  MEMB      21              0.0000000000
      2808        21  POPC      C315           17.7109716825      -11.6092827386        2.8058180889  MEMB      21              0.0000000000
      2809        21  POPC      H15X           16.8885337634      -11.4272622130        2.0813971948  MEMB      21              0.0000000000
      2810        21  POPC      H15Y           17.5869238542      -12.6910499647        3.0265282610  MEMB      21              0.0000000000
      2811        21  POPC      C316           19.0472190284      -11.2327327694        2.1567584111  MEMB      21              0.0000000000
      2812        21  POPC      H16X           19.0702179018      -10.1219963422        2.1492286261  MEMB      21              0.0000000000
      2813        21  POPC      H16Y           19.0399267954      -11.5013621229        1.0787480586  MEMB      21              0.0000000000
      2814        21  POPC      H16Z           19.9146353867      -11.6745524681        2.6922066511  MEMB      21              0.0000000000
      2815        22  POPC      N             -21.0144998652       -7.9151319723       19.5984040075  MEMB      22              0.0000000000
      2816        22  POPC      C12           -21.6910474827       -6.6506103855       19.1788029032  MEMB      22              0.0000000000
      2817        22  POPC      H12A          -22.7555708925       -6.7584590682       19.3256309296  MEMB      22              0.0000000000
      2818        22  POPC      H12B          -21.5175245271       -6.4448130673       18.1328883657  MEMB      22              0.0000000000
      2819        22  POPC      C13           -20.5670292326       -7.8925060453       21.0402073121  MEMB      22              0.0000000000
      2820        22  POPC      H13A          -19.9681681849       -8.7686575008       21.2405176783  MEMB      22              0.0000000000
      2821        22  POPC      H13B          -19.8839390117       -7.0623147788       21.1430185144  MEMB      22              0.0000000000
      2822        22  POPC      H13C          -21.4096529413       -7.6465045279       21.6693881744  MEMB      22              0.0000000000
      2823        22  POPC      C14           -21.9131848154       -9.0816786341       19.3367929185  MEMB      22              0.0000000000
      2824        22  POPC      H14A          -22.1814951539       -9.0219029939       18.2923617572  MEMB      22              0.0000000000
      2825        22  POPC      H14B          -21.3584467586      -10.0044842564       19.4210280031  MEMB      22              0.0000000000
      2826        22  POPC      H14C          -22.8053966420       -9.2515668844       19.9211695215  MEMB      22              0.0000000000
      2827        22  POPC      C15           -19.7879117315       -8.1350120266       18.7751102512  MEMB      22              0.0000000000
      2828        22  POPC      H15A          -20.0604027512       -7.8408494278       17.7723056983  MEMB      22              0.0000000000
      2829        22  POPC      H15B          -19.4592104624       -9.1427343642       18.9821157942  MEMB      22              0.0000000000
      2830        22  POPC      H15C          -19.0545664702       -7.4055000115       19.0856210515  MEMB      22              0.0000000000
      2831        22  POPC      C11           -21.2136426927       -5.3034768625       19.7994497807  MEMB      22              0.0000000000
      2832        22  POPC      H11A          -21.4801275577       -5.2506658101       20.8767230454  MEMB      22              0.0000000000
      2833        22  POPC      H11B          -21.8154697621       -4.4635439436       19.3912370473  MEMB      22              0.0000000000
      2834        22  POPC      P             -19.2173692633       -4.6501954670       18.2426119186  MEMB      22              0.0000000000
      2835        22  POPC      O13           -18.1206826287       -5.5603351650       17.9202525469  MEMB      22              0.0000000000
      2836        22  POPC      O14           -18.9464236675       -3.1924159320       18.3058028336  MEMB      22              0.0000000000
      2837        22  POPC      O12           -19.8464576001       -4.9432743038       19.6338322194  MEMB      22              0.0000000000
      2838        22  POPC      O11           -20.4062211252       -4.9744415223       17.1687333085  MEMB      22              0.0000000000
      2839        22  POPC      C1            -20.8227726330       -3.9825194184       16.2912364955  MEMB      22              0.0000000000
      2840        22  POPC      HA            -19.9586702942       -3.4044407705       15.8994798131  MEMB      22              0.0000000000
      2841        22  POPC      HB            -21.5487183242       -3.3209362343       16.8104971559  MEMB      22              0.0000000000
      2842        22  POPC      C2            -21.4827370217       -4.6149065870       15.0816753521  MEMB      22              0.0000000000
      2843        22  POPC      HS            -22.5241702144       -4.9299408752       15.3063778275  MEMB      22              0.0000000000
      2844        22  POPC      O21           -20.7203070754       -5.7151178047       14.4729454288  MEMB      22              0.0000000000
      2845        22  POPC      C21           -20.8583093866       -6.9222106664       15.0390557509  MEMB      22              0.0000000000
      2846        22  POPC      O22           -21.7480196243       -7.2501589678       15.7766920026  MEMB      22              0.0000000000
      2847        22  POPC      C22           -19.5982411949       -7.7898262054       14.6645356483  MEMB      22              0.0000000000
      2848        22  POPC      H2R           -19.9487058799       -8.6210649893       14.0160467218  MEMB      22              0.0000000000
      2849        22  POPC      H2S           -19.1733146345       -8.2718715173       15.5708416534  MEMB      22              0.0000000000
      2850        22  POPC      C3            -21.6606946991       -3.5278167421       14.0393331415  MEMB      22              0.0000000000
      2851        22  POPC      HX            -20.6375934929       -3.2374769333       13.7179492097  MEMB      22              0.0000000000
      2852        22  POPC      HY            -22.2089449511       -2.7429941516       14.6030677178  MEMB      22              0.0000000000
      2853        22  POPC      O31           -22.4056066484       -4.0368377913       12.9048297425  MEMB      22              0.0000000000
      2854        22  POPC      C31           -22.2195788414       -3.3674577958       11.8059314282  MEMB      22              0.0000000000
      2855        22  POPC      O32           -21.5643096487       -2.3262280314       11.6848622008  MEMB      22              0.0000000000
      2856        22  POPC      C32           -22.7605490039       -4.2154887300       10.6375593240  MEMB      22              0.0000000000
      2857        22  POPC      H2X           -22.8578471028       -3.5630510702        9.7435912412  MEMB      22              0.0000000000
      2858        22  POPC      H2Y           -23.7656210917       -4.6485633359       10.8288643128  MEMB      22              0.0000000000
      2859        22  POPC      C23           -18.4489892480       -6.8699507806       14.2473854374  MEMB      22              0.0000000000
      2860        22  POPC      H3R           -18.2513824393       -6.1114001293       15.0347059721  MEMB      22              0.0000000000
      2861        22  POPC      H3S           -18.6961201421       -6.2421603895       13.3647043864  MEMB      22              0.0000000000
      2862        22  POPC      C24           -17.2034204272       -7.6340485463       13.9540285547  MEMB      22              0.0000000000
      2863        22  POPC      H4R           -16.8374278173       -8.0660093467       14.9099468184  MEMB      22              0.0000000000
      2864        22  POPC      H4S           -16.5265411533       -6.8222498316       13.6117738910  MEMB      22              0.0000000000
      2865        22  POPC      C25           -17.3609360589       -8.7043391109       12.8641762822  MEMB      22              0.0000000000
      2866        22  POPC      H5R           -17.9771721168       -9.5336428276       13.2726241153  MEMB      22              0.0000000000
      2867        22  POPC      H5S           -16.3166668569       -9.0829412449       12.8861601737  MEMB      22              0.0000000000
      2868        22  POPC      C26           -17.7144884695       -8.2421500440       11.4463480662  MEMB      22              0.0000000000
      2869        22  POPC      H6R           -16.9004401437       -7.6459106055       10.9814340871  MEMB      22              0.0000000000
      2870        22  POPC      H6S           -18.5878983102       -7.5569438665       11.4907196332  MEMB      22              0.0000000000
      2871        22  POPC      C27           -17.9675216723       -9.4384300308       10.4593546107  MEMB      22              0.0000000000
      2872        22  POPC      H7R           -18.9171063860       -9.8828377670       10.8269303625  MEMB      22              0.0000000000
      2873        22  POPC      H7S           -17.2011784239      -10.2427157753       10.4721381252  MEMB      22              0.0000000000
      2874        22  POPC      C28           -18.1774369860       -8.9287397947        8.9804010001  MEMB      22              0.0000000000
      2875        22  POPC      H8R           -18.9355766937       -8.1174804491        8.9429372912  MEMB      22              0.0000000000
      2876        22  POPC      H8S           -18.8167788003       -9.7320924219        8.5559151164  MEMB      22              0.0000000000
      2877        22  POPC      C29           -16.9646476813       -8.7055305960        8.1207071835  MEMB      22              0.0000000000
      2878        22  POPC      H91           -16.0834760978       -9.3476847882        8.2662224556  MEMB      22              0.0000000000
      2879        22  POPC      C210          -17.0159135375       -7.8306210897        7.1220155135  MEMB      22              0.0000000000
      2880        22  POPC      H101          -16.0605742350       -7.6144784548        6.6214062083  MEMB      22              0.0000000000
      2881        22  POPC      C211          -18.1554648971       -6.9200638134        6.7551335618  MEMB      22              0.0000000000
      2882        22  POPC      H11R          -19.1212209472       -7.0967222493        7.2751605981  MEMB      22              0.0000000000
      2883        22  POPC      H11S          -18.4626380300       -7.1939947933        5.7231810360  MEMB      22              0.0000000000
      2884        22  POPC      C212          -17.7055488679       -5.4135340112        6.8953734783  MEMB      22              0.0000000000
      2885        22  POPC      H12R          -16.7018022681       -5.3039599786        6.4319006291  MEMB      22              0.0000000000
      2886        22  POPC      H12S          -17.4922345669       -5.2676845039        7.9759035139  MEMB      22              0.0000000000
      2887        22  POPC      C213          -18.7866361059       -4.4571505549        6.4134686920  MEMB      22              0.0000000000
      2888        22  POPC      H13R          -18.4997393953       -3.4122796667        6.6589396204  MEMB      22              0.0000000000
      2889        22  POPC      H13S          -19.6969936982       -4.7585483698        6.9744758420  MEMB      22              0.0000000000
      2890        22  POPC      C214          -19.0879632469       -4.7487594565        4.9030287955  MEMB      22              0.0000000000
      2891        22  POPC      H14R          -19.7411149856       -5.6474796097        4.8990486738  MEMB      22              0.0000000000
      2892        22  POPC      H14S          -18.0997757980       -4.9239525210        4.4264637899  MEMB      22              0.0000000000
      2893        22  POPC      C215          -19.9744413669       -3.6041960201        4.2290175229  MEMB      22              0.0000000000
      2894        22  POPC      H15R          -19.6785158518       -2.5592924719        4.4633797243  MEMB      22              0.0000000000
      2895        22  POPC      H15S          -20.9798898763       -3.6943132652        4.6929932565  MEMB      22              0.0000000000
      2896        22  POPC      C216          -19.9859985561       -3.7661889893        2.7120137847  MEMB      22              0.0000000000
      2897        22  POPC      H16R          -20.9586190970       -3.4068034483        2.3130477263  MEMB      22              0.0000000000
      2898        22  POPC      H16S          -19.9636581060       -4.8544988211        2.4897441593  MEMB      22              0.0000000000
      2899        22  POPC      C217          -18.7969491620       -3.1439729498        2.0021140402  MEMB      22              0.0000000000
      2900        22  POPC      H17R          -17.8627409315       -3.6686675769        2.2958335170  MEMB      22              0.0000000000
      2901        22  POPC      H17S          -18.5489033130       -2.1361902422        2.3985590700  MEMB      22              0.0000000000
      2902        22  POPC      C218          -18.8764563059       -3.0204814239        0.5423363100  MEMB      22              0.0000000000
      2903        22  POPC      H18R          -18.9254526875       -4.0034074159        0.0268003404  MEMB      22              0.0000000000
      2904        22  POPC      H18S          -18.0570119159       -2.3776693211        0.1555228403  MEMB      22              0.0000000000
      2905        22  POPC      H18T          -19.8301360050       -2.4796617295        0.3625294736  MEMB      22              0.0000000000
      2906        22  POPC      C33           -21.6949752602       -5.1946034938       10.3598999474  MEMB      22              0.0000000000
      2907        22  POPC      H3X           -21.7540821406       -5.9562411778       11.1665811247  MEMB      22              0.0000000000
      2908        22  POPC      H3Y           -20.6879981999       -4.7256169371       10.3406690791  MEMB      22              0.0000000000
      2909        22  POPC      C34           -21.7905535863       -5.9170262903        8.9611655882  MEMB      22              0.0000000000
      2910        22  POPC      H4X           -21.0064322689       -6.7009422411        9.0315266640  MEMB      22              0.0000000000
      2911        22  POPC      H4Y           -21.5706993499       -5.2564521190        8.0953556259  MEMB      22              0.0000000000
      2912        22  POPC      C35           -22.9971636425       -6.7112792528        8.7405121401  MEMB      22              0.0000000000
      2913        22  POPC      H5X           -23.8092507837       -5.9599173579        8.8419545888  MEMB      22              0.0000000000
      2914        22  POPC      H5Y           -23.1007040374       -7.3819073676        9.6202043028  MEMB      22              0.0000000000
      2915        22  POPC      C36           -23.2850829453       -7.4281716196        7.4149112498  MEMB      22              0.0000000000
      2916        22  POPC      H6X           -24.3381538638       -7.7509754525        7.2694448927  MEMB      22              0.0000000000
      2917        22  POPC      H6Y           -22.6980891140       -8.3567339943        7.5808353155  MEMB      22              0.0000000000
      2918        22  POPC      C37           -22.7934076297       -6.6839123250        6.1674714119  MEMB      22              0.0000000000
      2919        22  POPC      H7X           -21.7318370469       -6.4514738408        6.3984727706  MEMB      22              0.0000000000
      2920        22  POPC      H7Y           -23.3442736923       -5.7499478150        5.9254442105  MEMB      22              0.0000000000
      2921        22  POPC      C38           -22.8596721740       -7.7045503048        5.0817935995  MEMB      22              0.0000000000
      2922        22  POPC      H8X           -23.9416634560       -7.9511423037        5.0288008832  MEMB      22              0.0000000000
      2923        22  POPC      H8Y           -22.3902814714       -8.6322078817        5.4735149407  MEMB      22              0.0000000000
      2924        22  POPC      C39           -22.2075196500       -7.2663452009        3.7552853103  MEMB      22              0.0000000000
      2925        22  POPC      H9X           -22.2281468836       -8.1296668158        3.0563061135  MEMB      22              0.0000000000
      2926        22  POPC      H9Y           -21.1567388553       -7.0171876528        4.0162474293  MEMB      22              0.0000000000
      2927        22  POPC      C310          -22.9188037439       -6.1050354326        3.0305212216  MEMB      22              0.0000000000
      2928        22  POPC      H10X          -22.6751845909       -5.1682847049        3.5759279247  MEMB      22              0.0000000000
      2929        22  POPC      H10Y          -24.0071763437       -6.3221499607        2.9792605286  MEMB      22              0.0000000000
      2930        22  POPC      C311          -22.5332166765       -5.8699560187        1.5835194831  MEMB      22              0.0000000000
      2931        22  POPC      H11X          -21.4512559800       -5.8394707917        1.3330138512  MEMB      22              0.0000000000
      2932        22  POPC      H11Y          -23.0335765047       -4.9307485470        1.2643787344  MEMB      22              0.0000000000
      2933        22  POPC      C312          -23.0934835539       -6.9635876784        0.5775661566  MEMB      22              0.0000000000
      2934        22  POPC      H12X          -24.1336279261       -6.8980093979        0.9624305821  MEMB      22              0.0000000000
      2935        22  POPC      H12Y          -22.7211548165       -7.9883232251        0.7911298462  MEMB      22              0.0000000000
      2936        22  POPC      C313          -22.9215196080       -6.6725565793       -0.9252763817  MEMB      22              0.0000000000
      2937        22  POPC      H13X          -23.5509051432       -5.8244473322       -1.2701045478  MEMB      22              0.0000000000
      2938        22  POPC      H13Y          -23.3590974091       -7.5209710336       -1.4936430073  MEMB      22              0.0000000000
      2939        22  POPC      C314          -21.3861272878       -6.6708263216       -1.3516025248  MEMB      22              0.0000000000
      2940        22  POPC      H14X          -20.9323579714       -5.6910007755       -1.0901508909  MEMB      22              0.0000000000
      2941        22  POPC      H14Y          -21.4437985615       -6.6755382361       -2.4610930982  MEMB      22              0.0000000000
      2942        22  POPC      C315          -20.4792211077       -7.8383803110       -0.8222956071  MEMB      22              0.0000000000
      2943        22  POPC      H15X          -21.0266824850       -8.7523627600       -1.1373236665  MEMB      22              0.0000000000
      2944        22  POPC      H15Y          -20.4300071289       -7.6618335644        0.2734836219  MEMB      22              0.0000000000
      2945        22  POPC      C316          -19.1062472721       -7.6999765853       -1.4375509457  MEMB      22              0.0000000000
      2946        22  POPC      H16X          -19.2240202334       -7.8059610461       -2.5371943242  MEMB      22              0.0000000000
      2947        22  POPC      H16Y          -18.4131646241       -8.5448550464       -1.2372042457  MEMB      22              0.0000000000
      2948        22  POPC      H16Z          -18.7371761437       -6.6755925497       -1.2167686201  MEMB      22              0.0000000000
      2949        23  POPC      N               8.3875528947      -20.0631143924       20.9629244848  MEMB      23              0.0000000000
      2950        23  POPC      C12             9.2678507069      -20.8623706846       19.9919352267  MEMB      23              0.0000000000
      2951        23  POPC      H12A            8.7343673803      -21.7711005475       19.7552800536  MEMB      23              0.0000000000
      2952        23  POPC      H12B           10.1095737929      -21.2343020793       20.5572397730  MEMB      23              0.0000000000
      2953        23  POPC      C13             8.3911411908      -20.8570965840       22.2602573182  MEMB      23              0.0000000000
      2954        23  POPC      H13A            8.1216293865      -21.9029078262       22.2537576083  MEMB      23              0.0000000000
      2955        23  POPC      H13B            9.3780369528      -20.8650737144       22.6988609525  MEMB      23              0.0000000000
      2956        23  POPC      H13C            7.7247461315      -20.4165905842       22.9870807028  MEMB      23              0.0000000000
      2957        23  POPC      C14             8.9115625886      -18.7024387409       21.3057553407  MEMB      23              0.0000000000
      2958        23  POPC      H14A            9.8103492433      -18.8204297326       21.8928335835  MEMB      23              0.0000000000
      2959        23  POPC      H14B            9.1523480646      -18.0980653063       20.4436908349  MEMB      23              0.0000000000
      2960        23  POPC      H14C            8.1812643837      -18.1469666390       21.8754176679  MEMB      23              0.0000000000
      2961        23  POPC      C15             6.9714736004      -19.9802656756       20.3482446632  MEMB      23              0.0000000000
      2962        23  POPC      H15A            6.5405180317      -19.1976472451       20.9550278142  MEMB      23              0.0000000000
      2963        23  POPC      H15B            6.5020856240      -20.9523967136       20.3804362889  MEMB      23              0.0000000000
      2964        23  POPC      H15C            6.8546276632      -19.5814839622       19.3513895700  MEMB      23              0.0000000000
      2965        23  POPC      C11             9.8110744812      -20.1139410052       18.7303937725  MEMB      23              0.0000000000
      2966        23  POPC      H11A           10.3102164675      -20.9070679766       18.1336293663  MEMB      23              0.0000000000
      2967        23  POPC      H11B           10.4798013457      -19.2820995805       19.0388825274  MEMB      23              0.0000000000
      2968        23  POPC      P               7.7966706868      -20.3861314353       17.0729502507  MEMB      23              0.0000000000
      2969        23  POPC      O13             7.0019443675      -19.3681352422       16.2982175634  MEMB      23              0.0000000000
      2970        23  POPC      O14             7.0933761836      -21.4617799469       17.7340696635  MEMB      23              0.0000000000
      2971        23  POPC      O12             8.6874838146      -19.5165016700       18.1129127225  MEMB      23              0.0000000000
      2972        23  POPC      O11             8.9760122294      -20.9731754230       16.1823389910  MEMB      23              0.0000000000
      2973        23  POPC      C1              8.4948483249      -21.4976790248       14.9312537418  MEMB      23              0.0000000000
      2974        23  POPC      HA              7.4183653697      -21.6829548235       14.7283293143  MEMB      23              0.0000000000
      2975        23  POPC      HB              8.8781351271      -22.5396653580       14.9722015829  MEMB      23              0.0000000000
      2976        23  POPC      C2              9.2079864909      -20.7247203752       13.7200048113  MEMB      23              0.0000000000
      2977        23  POPC      HS             10.3007021285      -20.8493856152       13.8773325598  MEMB      23              0.0000000000
      2978        23  POPC      O21             8.7880862391      -19.3987790212       13.6809158987  MEMB      23              0.0000000000
      2979        23  POPC      C21             9.4522636841      -18.4646165223       13.1418071127  MEMB      23              0.0000000000
      2980        23  POPC      O22            10.5084732914      -18.5805316876       12.6003586059  MEMB      23              0.0000000000
      2981        23  POPC      C22             8.7195546411      -17.1338440952       13.2285539876  MEMB      23              0.0000000000
      2982        23  POPC      H2R             8.6301666902      -16.7714280104       14.2749690178  MEMB      23              0.0000000000
      2983        23  POPC      H2S             7.6690026415      -17.2130916209       12.8758764603  MEMB      23              0.0000000000
      2984        23  POPC      C3              8.8229649089      -21.3688727606       12.3329909497  MEMB      23              0.0000000000
      2985        23  POPC      HX              9.4834426866      -22.2621444276       12.3205017814  MEMB      23              0.0000000000
      2986        23  POPC      HY              9.2110480278      -20.7630820588       11.4863916847  MEMB      23              0.0000000000
      2987        23  POPC      O31             7.4624128735      -21.7718682537       12.2087494023  MEMB      23              0.0000000000
      2988        23  POPC      C31             6.5455964092      -20.9165385974       11.8616909188  MEMB      23              0.0000000000
      2989        23  POPC      O32             6.7008698351      -19.8044039110       11.4130702351  MEMB      23              0.0000000000
      2990        23  POPC      C32             5.2045846132      -21.7695931154       11.9910062823  MEMB      23              0.0000000000
      2991        23  POPC      H2X             4.4011136352      -21.1758771253       12.4770690887  MEMB      23              0.0000000000
      2992        23  POPC      H2Y             5.3102047155      -22.7176658580       12.5605006883  MEMB      23              0.0000000000
      2993        23  POPC      C23             9.5136767044      -15.8880474672       12.6995450697  MEMB      23              0.0000000000
      2994        23  POPC      H3R            10.5952788937      -15.8974413445       12.9532566910  MEMB      23              0.0000000000
      2995        23  POPC      H3S             9.0148480824      -14.9518268112       13.0296693308  MEMB      23              0.0000000000
      2996        23  POPC      C24             9.5861527418      -15.8318004821       11.1044692160  MEMB      23              0.0000000000
      2997        23  POPC      H4R             9.9898249784      -16.8491778343       10.9139099609  MEMB      23              0.0000000000
      2998        23  POPC      H4S            10.4335510181      -15.1888482124       10.7837670777  MEMB      23              0.0000000000
      2999        23  POPC      C25             8.2344563894      -15.5200738799       10.3945213228  MEMB      23              0.0000000000
      3000        23  POPC      H5R             7.7754842823      -14.5872219703       10.7862522217  MEMB      23              0.0000000000
      3001        23  POPC      H5S             7.6216727838      -16.3848905147       10.7275529282  MEMB      23              0.0000000000
      3002        23  POPC      C26             8.2177685808      -15.4614422122        8.9001506377  MEMB      23              0.0000000000
      3003        23  POPC      H6R             8.9505218340      -14.6941104084        8.5706122443  MEMB      23              0.0000000000
      3004        23  POPC      H6S             7.1952884833      -15.1571876450        8.5898531206  MEMB      23              0.0000000000
      3005        23  POPC      C27             8.6095742306      -16.8001531331        8.1959121145  MEMB      23              0.0000000000
      3006        23  POPC      H7R             7.9944539062      -17.5400017591        8.7514050474  MEMB      23              0.0000000000
      3007        23  POPC      H7S             9.6946930509      -16.9475823239        8.3832696146  MEMB      23              0.0000000000
      3008        23  POPC      C28             8.2718517552      -16.7978291543        6.7088519601  MEMB      23              0.0000000000
      3009        23  POPC      H8R             8.9808223308      -16.0174714180        6.3585322928  MEMB      23              0.0000000000
      3010        23  POPC      H8S             7.2235019970      -16.4553023949        6.5748397950  MEMB      23              0.0000000000
      3011        23  POPC      C29             8.4644478782      -18.1845257576        6.1248984187  MEMB      23              0.0000000000
      3012        23  POPC      H91             9.4957102846      -18.5670767621        6.1372456522  MEMB      23              0.0000000000
      3013        23  POPC      C210            7.5156130118      -18.8749919017        5.5230022962  MEMB      23              0.0000000000
      3014        23  POPC      H101            7.6595455232      -19.9256651651        5.2308218958  MEMB      23              0.0000000000
      3015        23  POPC      C211            6.0832869454      -18.3936029587        5.2865024959  MEMB      23              0.0000000000
      3016        23  POPC      H11R            6.0269257579      -17.3241518217        4.9908356390  MEMB      23              0.0000000000
      3017        23  POPC      H11S            5.6266379572      -18.4836217753        6.2953083440  MEMB      23              0.0000000000
      3018        23  POPC      C212            5.3079688923      -19.1315966891        4.2154658116  MEMB      23              0.0000000000
      3019        23  POPC      H12R            4.2602279593      -18.8004637986        4.3795112474  MEMB      23              0.0000000000
      3020        23  POPC      H12S            5.2716940334      -20.2238669728        4.4153433027  MEMB      23              0.0000000000
      3021        23  POPC      C213            5.7389316499      -18.8994966381        2.7742856508  MEMB      23              0.0000000000
      3022        23  POPC      H13R            5.2764969158      -19.5771921370        2.0251498132  MEMB      23              0.0000000000
      3023        23  POPC      H13S            6.8447765043      -19.0062415306        2.7800485176  MEMB      23              0.0000000000
      3024        23  POPC      C214            5.5300658843      -17.5078406093        2.2862941243  MEMB      23              0.0000000000
      3025        23  POPC      H14R            6.1937359423      -16.8360836113        2.8716190486  MEMB      23              0.0000000000
      3026        23  POPC      H14S            4.5122509545      -17.0954095355        2.4544438930  MEMB      23              0.0000000000
      3027        23  POPC      C215            6.0924995141      -17.3268698281        0.7937293031  MEMB      23              0.0000000000
      3028        23  POPC      H15R            6.9207595513      -18.0622225302        0.7067661625  MEMB      23              0.0000000000
      3029        23  POPC      H15S            6.5100964594      -16.3050376694        0.6680573743  MEMB      23              0.0000000000
      3030        23  POPC      C216            5.0213599515      -17.5403636638       -0.2724905390  MEMB      23              0.0000000000
      3031        23  POPC      H16R            4.4570652303      -16.5866065135       -0.3514812816  MEMB      23              0.0000000000
      3032        23  POPC      H16S            4.2700448917      -18.2482836355        0.1382353471  MEMB      23              0.0000000000
      3033        23  POPC      C217            5.4386652445      -17.9374933558       -1.6569030700  MEMB      23              0.0000000000
      3034        23  POPC      H17R            4.5274961866      -18.2466847162       -2.2123237228  MEMB      23              0.0000000000
      3035        23  POPC      H17S            6.0662927582      -18.8531812061       -1.7007279745  MEMB      23              0.0000000000
      3036        23  POPC      C218            6.1962719671      -16.9471399167       -2.5006974363  MEMB      23              0.0000000000
      3037        23  POPC      H18R            7.0924031509      -16.5515531651       -1.9765022129  MEMB      23              0.0000000000
      3038        23  POPC      H18S            5.5828688790      -16.1038376632       -2.8839715339  MEMB      23              0.0000000000
      3039        23  POPC      H18T            6.5062915235      -17.3999472940       -3.4667069463  MEMB      23              0.0000000000
      3040        23  POPC      C33             4.6411731756      -21.9611889615       10.5586335132  MEMB      23              0.0000000000
      3041        23  POPC      H3X             4.6445706576      -20.9470176232       10.1050190353  MEMB      23              0.0000000000
      3042        23  POPC      H3Y             3.6036593742      -22.3572360910       10.5907552749  MEMB      23              0.0000000000
      3043        23  POPC      C34             5.4367826184      -22.9705254004        9.7733390447  MEMB      23              0.0000000000
      3044        23  POPC      H4X             5.1314171250      -23.9937442974       10.0800896557  MEMB      23              0.0000000000
      3045        23  POPC      H4Y             6.4814390365      -22.7699230605       10.0939212747  MEMB      23              0.0000000000
      3046        23  POPC      C35             5.4714925082      -22.6522871108        8.2784604925  MEMB      23              0.0000000000
      3047        23  POPC      H5X             5.5117972795      -21.5456041466        8.1893010822  MEMB      23              0.0000000000
      3048        23  POPC      H5Y             4.4851870389      -23.0020206005        7.9053531271  MEMB      23              0.0000000000
      3049        23  POPC      C36             6.6470661850      -23.2097125560        7.4053638267  MEMB      23              0.0000000000
      3050        23  POPC      H6X             6.8144123488      -24.3049168572        7.4880896921  MEMB      23              0.0000000000
      3051        23  POPC      H6Y             7.4912557339      -22.7122431382        7.9289944240  MEMB      23              0.0000000000
      3052        23  POPC      C37             6.4918130425      -22.6947016448        6.0335941712  MEMB      23              0.0000000000
      3053        23  POPC      H7X             6.4644703601      -21.5854239475        6.0890604804  MEMB      23              0.0000000000
      3054        23  POPC      H7Y             5.4962560277      -22.9612806640        5.6187176731  MEMB      23              0.0000000000
      3055        23  POPC      C38             7.6359168032      -23.0774104810        5.1091878596  MEMB      23              0.0000000000
      3056        23  POPC      H8X             7.6772846987      -24.1673071626        4.8976834012  MEMB      23              0.0000000000
      3057        23  POPC      H8Y             8.5763866209      -22.7424441006        5.5966664711  MEMB      23              0.0000000000
      3058        23  POPC      C39             7.5067264398      -22.4077636601        3.7467878620  MEMB      23              0.0000000000
      3059        23  POPC      H9X             7.4069925388      -21.3154431948        3.9234507088  MEMB      23              0.0000000000
      3060        23  POPC      H9Y             6.5792766800      -22.6306756408        3.1771665278  MEMB      23              0.0000000000
      3061        23  POPC      C310            8.7217002282      -22.7721739870        2.8876237180  MEMB      23              0.0000000000
      3062        23  POPC      H10X            8.6893047601      -23.8459964011        2.6044676987  MEMB      23              0.0000000000
      3063        23  POPC      H10Y            9.6499427494      -22.5666799442        3.4624785937  MEMB      23              0.0000000000
      3064        23  POPC      C311            8.9112664888      -21.8577014599        1.7592702888  MEMB      23              0.0000000000
      3065        23  POPC      H11X            8.2420047246      -20.9824428750        1.9018615237  MEMB      23              0.0000000000
      3066        23  POPC      H11Y            8.6257834635      -22.2854143840        0.7744439533  MEMB      23              0.0000000000
      3067        23  POPC      C312           10.3934486781      -21.4569487257        1.4662475249  MEMB      23              0.0000000000
      3068        23  POPC      H12X           11.0911675167      -22.3192907202        1.5285022865  MEMB      23              0.0000000000
      3069        23  POPC      H12Y           10.8083133401      -20.8027237646        2.2626129205  MEMB      23              0.0000000000
      3070        23  POPC      C313           10.5855333859      -20.9768284040        0.0689854092  MEMB      23              0.0000000000
      3071        23  POPC      H13X           10.0412665863      -21.5733243213       -0.6940915248  MEMB      23              0.0000000000
      3072        23  POPC      H13Y           11.6529900230      -21.1240670727       -0.2015290395  MEMB      23              0.0000000000
      3073        23  POPC      C314           10.1835567750      -19.5218965130       -0.1258445144  MEMB      23              0.0000000000
      3074        23  POPC      H14X           10.8467128672      -18.8300028948        0.4361422471  MEMB      23              0.0000000000
      3075        23  POPC      H14Y            9.1823436939      -19.3628109316        0.3286726960  MEMB      23              0.0000000000
      3076        23  POPC      C315           10.3565060607      -19.0094404499       -1.5725246103  MEMB      23              0.0000000000
      3077        23  POPC      H15X            9.4842827887      -19.3368956004       -2.1777693565  MEMB      23              0.0000000000
      3078        23  POPC      H15Y           11.3176726071      -19.3913052200       -1.9783064909  MEMB      23              0.0000000000
      3079        23  POPC      C316           10.3439572490      -17.5626392518       -1.6843634078  MEMB      23              0.0000000000
      3080        23  POPC      H16X           10.4803625195      -17.1495656767       -2.7066561677  MEMB      23              0.0000000000
      3081        23  POPC      H16Y           11.2972560611      -17.2122346259       -1.2340756248  MEMB      23              0.0000000000
      3082        23  POPC      H16Z            9.4439021138      -16.9971962376       -1.3611027740  MEMB      23              0.0000000000
      3083        24  POPC      N              -1.1607073627       24.0820247363       19.6008445790  MEMB      24              0.0000000000
      3084        24  POPC      C12             0.2026351290       23.4196740612       19.4060627541  MEMB      24              0.0000000000
      3085        24  POPC      H12A            0.8764741619       23.9651505488       20.0501095364  MEMB      24              0.0000000000
      3086        24  POPC      H12B            0.3420699397       23.5763253721       18.3466203182  MEMB      24              0.0000000000
      3087        24  POPC      C13            -2.1539394537       23.3344398055       18.7451785512  MEMB      24              0.0000000000
      3088        24  POPC      H13A           -1.7374868672       23.1699424321       17.7623723499  MEMB      24              0.0000000000
      3089        24  POPC      H13B           -2.4556856086       22.4228541654       19.2395073598  MEMB      24              0.0000000000
      3090        24  POPC      H13C           -3.0346046047       23.9524723278       18.6510271457  MEMB      24              0.0000000000
      3091        24  POPC      C14            -1.5219304441       24.0584598759       20.9890811404  MEMB      24              0.0000000000
      3092        24  POPC      H14A           -1.3435415813       23.0858943083       21.4234698049  MEMB      24              0.0000000000
      3093        24  POPC      H14B           -0.8814100782       24.8082713636       21.4294409016  MEMB      24              0.0000000000
      3094        24  POPC      H14C           -2.5054214678       24.4398756293       21.2207440158  MEMB      24              0.0000000000
      3095        24  POPC      C15            -1.1076426692       25.5218568362       19.1813674536  MEMB      24              0.0000000000
      3096        24  POPC      H15A           -0.2704720728       26.0775687676       19.5772586281  MEMB      24              0.0000000000
      3097        24  POPC      H15B           -2.0114651311       26.0398247041       19.4663477339  MEMB      24              0.0000000000
      3098        24  POPC      H15C           -1.1691318476       25.4973794045       18.1033971552  MEMB      24              0.0000000000
      3099        24  POPC      C11             0.2944916023       21.8928468652       19.5454498946  MEMB      24              0.0000000000
      3100        24  POPC      H11A            0.0047258835       21.5320334792       20.5554847635  MEMB      24              0.0000000000
      3101        24  POPC      H11B            1.3946229338       21.7488566997       19.4880142576  MEMB      24              0.0000000000
      3102        24  POPC      P              -0.3461752108       19.6733470690       18.3661291685  MEMB      24              0.0000000000
      3103        24  POPC      O13            -1.7261191642       19.2047613203       18.1222565932  MEMB      24              0.0000000000
      3104        24  POPC      O14             0.3762885694       19.1992090089       19.5781434430  MEMB      24              0.0000000000
      3105        24  POPC      O12            -0.2751378756       21.2469577489       18.3984724603  MEMB      24              0.0000000000
      3106        24  POPC      O11             0.4862583430       19.4025342549       17.0670139671  MEMB      24              0.0000000000
      3107        24  POPC      C1              1.8108888339       19.0555035818       17.3351013706  MEMB      24              0.0000000000
      3108        24  POPC      HA              1.8353725900       17.9793945456       17.6102575729  MEMB      24              0.0000000000
      3109        24  POPC      HB              2.3530050040       19.6258249459       18.1194257823  MEMB      24              0.0000000000
      3110        24  POPC      C2              2.6596258012       19.1222655259       16.0372580805  MEMB      24              0.0000000000
      3111        24  POPC      HS              3.6713459049       18.9076793544       16.4430860406  MEMB      24              0.0000000000
      3112        24  POPC      O21             2.6603308321       20.4300115138       15.4673052004  MEMB      24              0.0000000000
      3113        24  POPC      C21             3.5538534811       20.5870467730       14.4117082451  MEMB      24              0.0000000000
      3114        24  POPC      O22             4.3034480703       19.7523716457       14.1249191256  MEMB      24              0.0000000000
      3115        24  POPC      C22             3.3617090697       21.9911688202       13.8731349458  MEMB      24              0.0000000000
      3116        24  POPC      H2R             3.2744215766       22.7258065351       14.7019951057  MEMB      24              0.0000000000
      3117        24  POPC      H2S             2.3469840805       21.9705553327       13.4212175284  MEMB      24              0.0000000000
      3118        24  POPC      C3              2.0383275816       18.0472074050       15.1066650406  MEMB      24              0.0000000000
      3119        24  POPC      HX              1.7621539029       17.1585575178       15.7135838517  MEMB      24              0.0000000000
      3120        24  POPC      HY              2.8436083304       17.7391188530       14.4060040636  MEMB      24              0.0000000000
      3121        24  POPC      O31             0.8252566172       18.4667585367       14.4815529905  MEMB      24              0.0000000000
      3122        24  POPC      C31             0.7499361858       18.1019888427       13.1815386295  MEMB      24              0.0000000000
      3123        24  POPC      O32             1.6975265179       17.7809997198       12.4776430194  MEMB      24              0.0000000000
      3124        24  POPC      C32            -0.7800289896       18.2692468341       12.7168724889  MEMB      24              0.0000000000
      3125        24  POPC      H2X            -1.2576838758       19.1952548808       13.1024574836  MEMB      24              0.0000000000
      3126        24  POPC      H2Y            -1.3583427135       17.3878481272       13.0676011874  MEMB      24              0.0000000000
      3127        24  POPC      C23             4.5157309091       22.4017959102       12.9514541281  MEMB      24              0.0000000000
      3128        24  POPC      H3R             5.5181827420       22.1276998477       13.3442425445  MEMB      24              0.0000000000
      3129        24  POPC      H3S             4.3209053292       23.4935309448       12.8845300692  MEMB      24              0.0000000000
      3130        24  POPC      C24             4.5741952840       21.8812163123       11.4798282926  MEMB      24              0.0000000000
      3131        24  POPC      H4R             5.0404046091       20.8732488755       11.4486603475  MEMB      24              0.0000000000
      3132        24  POPC      H4S             5.2070793207       22.5659607491       10.8757550692  MEMB      24              0.0000000000
      3133        24  POPC      C25             3.1868949263       21.7818211967       10.8009896270  MEMB      24              0.0000000000
      3134        24  POPC      H5R             2.5461151740       22.6360127006       11.1077123954  MEMB      24              0.0000000000
      3135        24  POPC      H5S             2.6450987757       20.8826078837       11.1645731918  MEMB      24              0.0000000000
      3136        24  POPC      C26             3.3785416068       21.5966285865        9.2288287847  MEMB      24              0.0000000000
      3137        24  POPC      H6R             4.1975116673       20.8936807135        8.9652505829  MEMB      24              0.0000000000
      3138        24  POPC      H6S             3.6890581571       22.5743854306        8.8023409457  MEMB      24              0.0000000000
      3139        24  POPC      C27             2.0583586931       21.1876471607        8.5699264680  MEMB      24              0.0000000000
      3140        24  POPC      H7R             1.5584927721       20.4798770202        9.2652796529  MEMB      24              0.0000000000
      3141        24  POPC      H7S             2.2867013449       20.5884732916        7.6626388321  MEMB      24              0.0000000000
      3142        24  POPC      C28             1.1782513088       22.3877851017        8.2343227329  MEMB      24              0.0000000000
      3143        24  POPC      H8R             1.0426661974       23.1369519475        9.0434492291  MEMB      24              0.0000000000
      3144        24  POPC      H8S             0.1971635557       21.9237655974        7.9966801929  MEMB      24              0.0000000000
      3145        24  POPC      C29             1.6348918536       23.0846266135        6.9171700553  MEMB      24              0.0000000000
      3146        24  POPC      H91             2.6308987501       22.7677628067        6.5742884126  MEMB      24              0.0000000000
      3147        24  POPC      C210            0.9493166797       23.9501348837        6.1824730738  MEMB      24              0.0000000000
      3148        24  POPC      H101            1.4603057886       24.3528760910        5.2955175215  MEMB      24              0.0000000000
      3149        24  POPC      C211           -0.4527825835       24.5212344530        6.4281098381  MEMB      24              0.0000000000
      3150        24  POPC      H11R           -0.5812477934       25.6095800426        6.2455670673  MEMB      24              0.0000000000
      3151        24  POPC      H11S           -0.8977230731       24.3876144952        7.4373142140  MEMB      24              0.0000000000
      3152        24  POPC      C212           -1.3982213035       23.8010430215        5.4453291818  MEMB      24              0.0000000000
      3153        24  POPC      H12R           -2.4545508416       24.1137251734        5.5892699706  MEMB      24              0.0000000000
      3154        24  POPC      H12S           -1.3008087186       22.6949180996        5.4816533586  MEMB      24              0.0000000000
      3155        24  POPC      C213           -1.1088646553       24.1336666083        3.9966524916  MEMB      24              0.0000000000
      3156        24  POPC      H13R           -0.2491419531       23.5509036004        3.6022092691  MEMB      24              0.0000000000
      3157        24  POPC      H13S           -0.8435829974       25.2097891118        3.9197960374  MEMB      24              0.0000000000
      3158        24  POPC      C214           -2.2193897303       23.8055078962        2.9409684698  MEMB      24              0.0000000000
      3159        24  POPC      H14R           -1.9679543936       24.1261260552        1.9073811401  MEMB      24              0.0000000000
      3160        24  POPC      H14S           -3.1524558872       24.3546710998        3.1902256202  MEMB      24              0.0000000000
      3161        24  POPC      C215           -2.5371485199       22.3532851403        2.9015576182  MEMB      24              0.0000000000
      3162        24  POPC      H15R           -3.0038437715       22.0865735308        3.8738662507  MEMB      24              0.0000000000
      3163        24  POPC      H15S           -1.6073586156       21.7572299247        2.7810176441  MEMB      24              0.0000000000
      3164        24  POPC      C216           -3.3927820152       22.0415537530        1.6174908420  MEMB      24              0.0000000000
      3165        24  POPC      H16R           -2.7841081478       22.0937363874        0.6895295988  MEMB      24              0.0000000000
      3166        24  POPC      H16S           -4.2137183109       22.7889778454        1.6592270501  MEMB      24              0.0000000000
      3167        24  POPC      C217           -3.8628606252       20.5241451033        1.5543314257  MEMB      24              0.0000000000
      3168        24  POPC      H17R           -4.2027463766       20.1950059998        2.5595513349  MEMB      24              0.0000000000
      3169        24  POPC      H17S           -2.9753147366       19.9025991070        1.3088434468  MEMB      24              0.0000000000
      3170        24  POPC      C218           -5.1203730747       20.1609463397        0.6327859312  MEMB      24              0.0000000000
      3171        24  POPC      H18R           -5.2962814281       19.0646738568        0.6723299323  MEMB      24              0.0000000000
      3172        24  POPC      H18S           -5.0906635491       20.5606883180       -0.4033815270  MEMB      24              0.0000000000
      3173        24  POPC      H18T           -5.9335498482       20.7642955313        1.0899887132  MEMB      24              0.0000000000
      3174        24  POPC      C33            -0.9080130760       18.2814897991       11.1796715588  MEMB      24              0.0000000000
      3175        24  POPC      H3X            -0.1111872815       17.6624152032       10.7147662180  MEMB      24              0.0000000000
      3176        24  POPC      H3Y            -0.7453856910       19.3045737593       10.7782080279  MEMB      24              0.0000000000
      3177        24  POPC      C34            -2.1915223969       17.6543715026       10.6029021244  MEMB      24              0.0000000000
      3178        24  POPC      H4X            -3.0449895634       18.1302898213       11.1315000534  MEMB      24              0.0000000000
      3179        24  POPC      H4Y            -2.2348330270       16.5818676827       10.8895739195  MEMB      24              0.0000000000
      3180        24  POPC      C35            -2.3230335601       17.7766308522        9.0955039122  MEMB      24              0.0000000000
      3181        24  POPC      H5X            -3.3299602875       17.3662543449        8.8674472726  MEMB      24              0.0000000000
      3182        24  POPC      H5Y            -1.5643581560       17.0743095183        8.6887152348  MEMB      24              0.0000000000
      3183        24  POPC      C36            -2.2524981752       19.1758496628        8.5065911613  MEMB      24              0.0000000000
      3184        24  POPC      H6X            -1.3117138460       19.7355231694        8.6963574081  MEMB      24              0.0000000000
      3185        24  POPC      H6Y            -3.1245292334       19.7315182369        8.9129348528  MEMB      24              0.0000000000
      3186        24  POPC      C37            -2.5124576095       19.1877917772        7.0163885345  MEMB      24              0.0000000000
      3187        24  POPC      H7X            -2.6837679401       20.2438159745        6.7167441812  MEMB      24              0.0000000000
      3188        24  POPC      H7Y            -3.4388979932       18.5861717856        6.8977175541  MEMB      24              0.0000000000
      3189        24  POPC      C38            -1.2547005124       18.6991198279        6.2232928920  MEMB      24              0.0000000000
      3190        24  POPC      H8X            -1.1586562376       17.5923545731        6.2103381658  MEMB      24              0.0000000000
      3191        24  POPC      H8Y            -0.3601690300       19.0252475133        6.7958091090  MEMB      24              0.0000000000
      3192        24  POPC      C39            -1.2260857798       19.2100616040        4.7871001104  MEMB      24              0.0000000000
      3193        24  POPC      H9X            -1.6721613447       20.2275769428        4.7875643801  MEMB      24              0.0000000000
      3194        24  POPC      H9Y            -2.0100614154       18.6563891407        4.2275027324  MEMB      24              0.0000000000
      3195        24  POPC      C310            0.0801927473       18.9136340493        3.9953982974  MEMB      24              0.0000000000
      3196        24  POPC      H10X           -0.1417704190       19.1221161918        2.9269476737  MEMB      24              0.0000000000
      3197        24  POPC      H10Y            0.2074386943       17.8297959679        4.2037845941  MEMB      24              0.0000000000
      3198        24  POPC      C311            1.2397066918       19.7768998759        4.2925306197  MEMB      24              0.0000000000
      3199        24  POPC      H11X            1.7734325800       19.4778515342        5.2199071416  MEMB      24              0.0000000000
      3200        24  POPC      H11Y            0.8625597099       20.8028328644        4.4913846322  MEMB      24              0.0000000000
      3201        24  POPC      C312            2.1821501330       19.9525907145        3.1307905988  MEMB      24              0.0000000000
      3202        24  POPC      H12X            1.7260079690       20.2669902205        2.1677701598  MEMB      24              0.0000000000
      3203        24  POPC      H12Y            2.7736805225       19.0276891623        2.9605851357  MEMB      24              0.0000000000
      3204        24  POPC      C313            3.3953261424       20.9173943283        3.4164385956  MEMB      24              0.0000000000
      3205        24  POPC      H13X            4.1526700898       20.7943816798        2.6129342990  MEMB      24              0.0000000000
      3206        24  POPC      H13Y            4.0024866477       20.5184332704        4.2569782659  MEMB      24              0.0000000000
      3207        24  POPC      C314            3.0472374400       22.4076799336        3.6431095487  MEMB      24              0.0000000000
      3208        24  POPC      H14X            3.9275511830       22.9166991670        4.0906219185  MEMB      24              0.0000000000
      3209        24  POPC      H14Y            2.1356282745       22.5585725452        4.2599734351  MEMB      24              0.0000000000
      3210        24  POPC      C315            2.7378819408       23.1546623033        2.3638018321  MEMB      24              0.0000000000
      3211        24  POPC      H15X            2.1515066775       24.0783423499        2.5569354957  MEMB      24              0.0000000000
      3212        24  POPC      H15Y            2.0563596072       22.4944374378        1.7859169992  MEMB      24              0.0000000000
      3213        24  POPC      C316            3.8653863853       23.3912491291        1.4336801412  MEMB      24              0.0000000000
      3214        24  POPC      H16X            4.7988930444       23.4499071715        2.0332168288  MEMB      24              0.0000000000
      3215        24  POPC      H16Y            3.6873329826       24.4113967496        1.0312913666  MEMB      24              0.0000000000
      3216        24  POPC      H16Z            3.8928914275       22.6184372000        0.6359788740  MEMB      24              0.0000000000
      3217        25  POPC      N              20.0748540559        6.3781073289       17.5065385311  MEMB      25              0.0000000000
      3218        25  POPC      C12            21.1772341780        5.9791699155       18.5088532118  MEMB      25              0.0000000000
      3219        25  POPC      H12A           21.7104679882        5.1516506985       18.0646984256  MEMB      25              0.0000000000
      3220        25  POPC      H12B           20.7450589114        5.7081487256       19.4607838888  MEMB      25              0.0000000000
      3221        25  POPC      C13            18.9933609662        7.1830192038       18.0998843736  MEMB      25              0.0000000000
      3222        25  POPC      H13A           18.4949875919        6.6759951530       18.9128731263  MEMB      25              0.0000000000
      3223        25  POPC      H13B           19.3401694956        8.1229878374       18.5030997713  MEMB      25              0.0000000000
      3224        25  POPC      H13C           18.2547856376        7.3610447420       17.3322819533  MEMB      25              0.0000000000
      3225        25  POPC      C14            20.6921481921        7.0490246696       16.3090355681  MEMB      25              0.0000000000
      3226        25  POPC      H14A           21.1453673702        7.9711962443       16.6415891810  MEMB      25              0.0000000000
      3227        25  POPC      H14B           21.5213655412        6.5244033261       15.8578471312  MEMB      25              0.0000000000
      3228        25  POPC      H14C           19.9410955042        7.3184808335       15.5812214884  MEMB      25              0.0000000000
      3229        25  POPC      C15            19.5036729073        5.0842751554       16.9023139905  MEMB      25              0.0000000000
      3230        25  POPC      H15A           19.2481478954        4.3290924249       17.6308781073  MEMB      25              0.0000000000
      3231        25  POPC      H15B           20.3229552001        4.7296939771       16.2944911309  MEMB      25              0.0000000000
      3232        25  POPC      H15C           18.5767850967        5.3538961046       16.4179756574  MEMB      25              0.0000000000
      3233        25  POPC      C11            22.2454218292        7.0496506145       18.7772311671  MEMB      25              0.0000000000
      3234        25  POPC      H11A           22.9343378733        7.2292064965       17.9243095034  MEMB      25              0.0000000000
      3235        25  POPC      H11B           22.8584691222        6.6415975184       19.6090885494  MEMB      25              0.0000000000
      3236        25  POPC      P              21.9979568344        8.8231819643       20.6730511754  MEMB      25              0.0000000000
      3237        25  POPC      O13            23.2250704920        8.2965694510       21.2743251027  MEMB      25              0.0000000000
      3238        25  POPC      O14            20.7039774133        8.5925819043       21.3062470164  MEMB      25              0.0000000000
      3239        25  POPC      O12            21.7982622037        8.3398536841       19.1196611764  MEMB      25              0.0000000000
      3240        25  POPC      O11            22.0753344270       10.3406462935       20.5228586345  MEMB      25              0.0000000000
      3241        25  POPC      C1             23.1326959228       10.9553712561       19.8112562313  MEMB      25              0.0000000000
      3242        25  POPC      HA             23.8511131702       10.2143103848       19.4001278836  MEMB      25              0.0000000000
      3243        25  POPC      HB             23.7726225371       11.4073922972       20.5989694047  MEMB      25              0.0000000000
      3244        25  POPC      C2             22.5199457078       11.8882221679       18.7344020015  MEMB      25              0.0000000000
      3245        25  POPC      HS             22.1983892215       12.8290688656       19.2301134920  MEMB      25              0.0000000000
      3246        25  POPC      O21            21.3375371616       11.2451680704       18.2158564975  MEMB      25              0.0000000000
      3247        25  POPC      C21            20.5649795248       11.9650568631       17.3751451277  MEMB      25              0.0000000000
      3248        25  POPC      O22            20.6494316505       13.1668180355       17.1691373319  MEMB      25              0.0000000000
      3249        25  POPC      C22            19.4008695060       11.1299507597       17.0185978976  MEMB      25              0.0000000000
      3250        25  POPC      H2R            18.9564293039       10.6919655451       17.9378165380  MEMB      25              0.0000000000
      3251        25  POPC      H2S            19.7259173046       10.2228425660       16.4655883226  MEMB      25              0.0000000000
      3252        25  POPC      C3             23.4975953021       12.2407709131       17.6202082205  MEMB      25              0.0000000000
      3253        25  POPC      HX             24.3944609043       12.6875194688       18.1001759288  MEMB      25              0.0000000000
      3254        25  POPC      HY             23.1242170354       13.0299351699       16.9330914916  MEMB      25              0.0000000000
      3255        25  POPC      O31            23.8744639849       11.0567439335       16.8768495823  MEMB      25              0.0000000000
      3256        25  POPC      C31            23.3685032907       10.9615159144       15.6221207191  MEMB      25              0.0000000000
      3257        25  POPC      O32            22.6544329894       11.8243368573       15.1085428818  MEMB      25              0.0000000000
      3258        25  POPC      C32            23.7678638619        9.6812922609       15.0238136576  MEMB      25              0.0000000000
      3259        25  POPC      H2X            23.6407853925        8.8593623625       15.7604299756  MEMB      25              0.0000000000
      3260        25  POPC      H2Y            24.8437077191        9.6148386046       14.7546212481  MEMB      25              0.0000000000
      3261        25  POPC      C23            18.4224843439       12.0085502914       16.2036412911  MEMB      25              0.0000000000
      3262        25  POPC      H3R            18.1393906084       12.9163717820       16.7781319601  MEMB      25              0.0000000000
      3263        25  POPC      H3S            17.5459219747       11.3353940660       16.0904140923  MEMB      25              0.0000000000
      3264        25  POPC      C24            18.8475060872       12.2957013061       14.7575647193  MEMB      25              0.0000000000
      3265        25  POPC      H4R            19.8108749123       12.8400907374       14.8569716452  MEMB      25              0.0000000000
      3266        25  POPC      H4S            18.1043916648       13.0181718337       14.3573919985  MEMB      25              0.0000000000
      3267        25  POPC      C25            19.0773953831       11.1340448265       13.7696156084  MEMB      25              0.0000000000
      3268        25  POPC      H5R            18.1001737529       10.6078961592       13.7193513001  MEMB      25              0.0000000000
      3269        25  POPC      H5S            19.7930835186       10.3270804372       14.0359239092  MEMB      25              0.0000000000
      3270        25  POPC      C26            19.2838478434       11.4812389511       12.2982917212  MEMB      25              0.0000000000
      3271        25  POPC      H6R            18.4070023105       12.1096126212       12.0325674114  MEMB      25              0.0000000000
      3272        25  POPC      H6S            19.1704811365       10.6183333249       11.6077393965  MEMB      25              0.0000000000
      3273        25  POPC      C27            20.6028770593       12.2836864177       12.1002547440  MEMB      25              0.0000000000
      3274        25  POPC      H7R            21.4987769646       11.6664460904       12.3254192264  MEMB      25              0.0000000000
      3275        25  POPC      H7S            20.5750869393       13.2308507512       12.6802796383  MEMB      25              0.0000000000
      3276        25  POPC      C28            20.7627093148       12.7702627457       10.6284801880  MEMB      25              0.0000000000
      3277        25  POPC      H8R            21.4463584715       13.6447162269       10.5807741015  MEMB      25              0.0000000000
      3278        25  POPC      H8S            19.7945195872       13.2446093237       10.3602909436  MEMB      25              0.0000000000
      3279        25  POPC      C29            21.2705568680       11.5286949627        9.8035935552  MEMB      25              0.0000000000
      3280        25  POPC      H91            21.9493620511       10.8360480068       10.3226924395  MEMB      25              0.0000000000
      3281        25  POPC      C210           21.0662856933       11.3558019471        8.4793471068  MEMB      25              0.0000000000
      3282        25  POPC      H101           21.6909986347       10.6534824807        7.9079619518  MEMB      25              0.0000000000
      3283        25  POPC      C211           20.2965454229       12.3205875028        7.6663447034  MEMB      25              0.0000000000
      3284        25  POPC      H11R           21.0069896014       12.5608466144        6.8466704052  MEMB      25              0.0000000000
      3285        25  POPC      H11S           20.1344281269       13.2893130893        8.1855844979  MEMB      25              0.0000000000
      3286        25  POPC      C212           18.8650803131       11.8419807613        7.2064138208  MEMB      25              0.0000000000
      3287        25  POPC      H12R           18.5530887105       12.5641374524        6.4218940288  MEMB      25              0.0000000000
      3288        25  POPC      H12S           18.1497805258       11.8251685527        8.0563462105  MEMB      25              0.0000000000
      3289        25  POPC      C213           18.8219520824       10.3616019087        6.6676856859  MEMB      25              0.0000000000
      3290        25  POPC      H13R           17.7400244926       10.1985923452        6.4748611416  MEMB      25              0.0000000000
      3291        25  POPC      H13S           19.0101817111        9.6240294709        7.4769310561  MEMB      25              0.0000000000
      3292        25  POPC      C214           19.5771196933       10.0782807309        5.3715382602  MEMB      25              0.0000000000
      3293        25  POPC      H14R           20.6628115422       10.0504496170        5.6056739816  MEMB      25              0.0000000000
      3294        25  POPC      H14S           19.3985180586       10.9876282083        4.7587496175  MEMB      25              0.0000000000
      3295        25  POPC      C215           19.2492924190        8.6913554669        4.7691105932  MEMB      25              0.0000000000
      3296        25  POPC      H15R           18.1679748085        8.7215065668        4.5158043449  MEMB      25              0.0000000000
      3297        25  POPC      H15S           19.3227410479        7.9291954797        5.5741187875  MEMB      25              0.0000000000
      3298        25  POPC      C216           20.1052930387        8.3428438444        3.4999625539  MEMB      25              0.0000000000
      3299        25  POPC      H16R           19.7691128495        7.3941389440        3.0295767650  MEMB      25              0.0000000000
      3300        25  POPC      H16S           21.1286160164        8.3437193266        3.9325481977  MEMB      25              0.0000000000
      3301        25  POPC      C217           19.9473139854        9.5392477553        2.4644405611  MEMB      25              0.0000000000
      3302        25  POPC      H17R           20.1921125903       10.5091151097        2.9479196434  MEMB      25              0.0000000000
      3303        25  POPC      H17S           18.8681857182        9.5949362236        2.2061745099  MEMB      25              0.0000000000
      3304        25  POPC      C218           20.8339391883        9.3532671368        1.2826330227  MEMB      25              0.0000000000
      3305        25  POPC      H18R           20.4071651458        8.4784905447        0.7469556486  MEMB      25              0.0000000000
      3306        25  POPC      H18S           21.8802572049        9.1484896023        1.5950519942  MEMB      25              0.0000000000
      3307        25  POPC      H18T           20.7014531958       10.2554050634        0.6478759778  MEMB      25              0.0000000000
      3308        25  POPC      C33            22.9072844613        9.3524958323       13.7995335452  MEMB      25              0.0000000000
      3309        25  POPC      H3X            23.0968590578       10.1188950361       13.0178592880  MEMB      25              0.0000000000
      3310        25  POPC      H3Y            21.8260011960        9.3531618053       14.0547729442  MEMB      25              0.0000000000
      3311        25  POPC      C34            23.2788915679        7.9809078919       13.1999367231  MEMB      25              0.0000000000
      3312        25  POPC      H4X            23.1745344248        7.1672574612       13.9492055148  MEMB      25              0.0000000000
      3313        25  POPC      H4Y            24.3535661087        8.0491777170       12.9265589989  MEMB      25              0.0000000000
      3314        25  POPC      C35            22.4497873456        7.5731893853       11.8903038695  MEMB      25              0.0000000000
      3315        25  POPC      H5X            22.7240063443        6.5642407690       11.5146074927  MEMB      25              0.0000000000
      3316        25  POPC      H5Y            22.6169004301        8.3582441139       11.1221356513  MEMB      25              0.0000000000
      3317        25  POPC      C36            20.9591503121        7.4664837187       12.1258754318  MEMB      25              0.0000000000
      3318        25  POPC      H6X            20.5792975706        8.5065342363       12.2171317718  MEMB      25              0.0000000000
      3319        25  POPC      H6Y            20.8158332537        6.9385323759       13.0928542986  MEMB      25              0.0000000000
      3320        25  POPC      C37            20.1979196803        6.5612760832       11.0785497712  MEMB      25              0.0000000000
      3321        25  POPC      H7X            19.1831206227        6.3115486963       11.4555647702  MEMB      25              0.0000000000
      3322        25  POPC      H7Y            20.7223911251        5.5818821908       11.0723647809  MEMB      25              0.0000000000
      3323        25  POPC      C38            20.0985798607        6.9906196116        9.5937133536  MEMB      25              0.0000000000
      3324        25  POPC      H8X            19.7130900463        8.0324860994        9.6089673126  MEMB      25              0.0000000000
      3325        25  POPC      H8Y            19.2838287339        6.4532400470        9.0629359942  MEMB      25              0.0000000000
      3326        25  POPC      C39            21.4187511684        6.9120771982        8.7183611999  MEMB      25              0.0000000000
      3327        25  POPC      H9X            21.8468628561        5.8946502995        8.8443933666  MEMB      25              0.0000000000
      3328        25  POPC      H9Y            22.1459544583        7.6945384001        9.0237312283  MEMB      25              0.0000000000
      3329        25  POPC      C310           21.1730371468        7.0764106104        7.2015703302  MEMB      25              0.0000000000
      3330        25  POPC      H10X           20.8715557283        8.1400690352        7.0917474670  MEMB      25              0.0000000000
      3331        25  POPC      H10Y           20.3158471025        6.4465869360        6.8808392269  MEMB      25              0.0000000000
      3332        25  POPC      C311           22.4012839561        6.7214567610        6.3652099276  MEMB      25              0.0000000000
      3333        25  POPC      H11X           22.1755788747        6.6438107589        5.2801527064  MEMB      25              0.0000000000
      3334        25  POPC      H11Y           22.6787784122        5.6934102045        6.6821289396  MEMB      25              0.0000000000
      3335        25  POPC      C312           23.6258323101        7.6616278062        6.5420496102  MEMB      25              0.0000000000
      3336        25  POPC      H12X           24.5507927739        7.1239662287        6.2425675705  MEMB      25              0.0000000000
      3337        25  POPC      H12Y           23.6328130448        8.0124628203        7.5961781288  MEMB      25              0.0000000000
      3338        25  POPC      C313           23.5856794868        9.0592359011        5.8460503009  MEMB      25              0.0000000000
      3339        25  POPC      H13X           24.2943474838        9.7574818461        6.3405839527  MEMB      25              0.0000000000
      3340        25  POPC      H13Y           22.5194754048        9.3712591439        5.8329531216  MEMB      25              0.0000000000
      3341        25  POPC      C314           23.9701209469        9.1022302873        4.3310352385  MEMB      25              0.0000000000
      3342        25  POPC      H14X           23.2862531877        8.5008361212        3.6946623353  MEMB      25              0.0000000000
      3343        25  POPC      H14Y           25.0095434097        8.7118386692        4.2920860795  MEMB      25              0.0000000000
      3344        25  POPC      C315           24.0023662070       10.5272772297        3.7452106845  MEMB      25              0.0000000000
      3345        25  POPC      H15X           23.6029244995       11.3180990671        4.4155601412  MEMB      25              0.0000000000
      3346        25  POPC      H15Y           23.3780025281       10.5166623930        2.8263099555  MEMB      25              0.0000000000
      3347        25  POPC      C316           25.3536507224       10.8619281887        3.1434828878  MEMB      25              0.0000000000
      3348        25  POPC      H16X           25.7123960789       10.0847895559        2.4351900788  MEMB      25              0.0000000000
      3349        25  POPC      H16Y           26.1552153671       10.7122920572        3.8980848767  MEMB      25              0.0000000000
      3350        25  POPC      H16Z           25.4691955947       11.7901590327        2.5440176078  MEMB      25              0.0000000000
      3351        26  POPC      N              18.2029970394      -16.3183305094       19.3590190371  MEMB      26              0.0000000000
      3352        26  POPC      C12            17.8925481225      -17.7958552744       19.7927038213  MEMB      26              0.0000000000
      3353        26  POPC      H12A           18.7304786635      -18.0177173248       20.4369474218  MEMB      26              0.0000000000
      3354        26  POPC      H12B           17.9269357383      -18.3761087015       18.8824712371  MEMB      26              0.0000000000
      3355        26  POPC      C13            18.0170362659      -15.3043393514       20.4626462215  MEMB      26              0.0000000000
      3356        26  POPC      H13A           18.2783243256      -14.3542488500       20.0205412003  MEMB      26              0.0000000000
      3357        26  POPC      H13B           16.9907266535      -15.1340233322       20.7526133678  MEMB      26              0.0000000000
      3358        26  POPC      H13C           18.6424658699      -15.5353964817       21.3122641689  MEMB      26              0.0000000000
      3359        26  POPC      C14            19.6611138578      -16.2982885869       18.9349594167  MEMB      26              0.0000000000
      3360        26  POPC      H14A           19.8090054305      -16.9818593819       18.1120018608  MEMB      26              0.0000000000
      3361        26  POPC      H14B           20.0706472970      -15.3595726500       18.5921846617  MEMB      26              0.0000000000
      3362        26  POPC      H14C           20.1355780528      -16.6511218306       19.8387250959  MEMB      26              0.0000000000
      3363        26  POPC      C15            17.4161485705      -15.9221816180       18.1732164210  MEMB      26              0.0000000000
      3364        26  POPC      H15A           16.4334831745      -15.9333669309       18.6211491059  MEMB      26              0.0000000000
      3365        26  POPC      H15B           17.3126269649      -16.7224330127       17.4553856234  MEMB      26              0.0000000000
      3366        26  POPC      H15C           17.9098623616      -15.0685020199       17.7329011561  MEMB      26              0.0000000000
      3367        26  POPC      C11            16.5360009076      -18.1433724948       20.4180634653  MEMB      26              0.0000000000
      3368        26  POPC      H11A           16.5197379219      -17.5169401367       21.3354722895  MEMB      26              0.0000000000
      3369        26  POPC      H11B           16.4065408995      -19.2140742049       20.6848198913  MEMB      26              0.0000000000
      3370        26  POPC      P              14.8556043411      -18.4858394926       18.3227865210  MEMB      26              0.0000000000
      3371        26  POPC      O13            14.3171435338      -17.4600842248       17.4231012038  MEMB      26              0.0000000000
      3372        26  POPC      O14            13.8215282566      -19.5162349196       18.7525153357  MEMB      26              0.0000000000
      3373        26  POPC      O12            15.4821753996      -17.7209676306       19.6308424135  MEMB      26              0.0000000000
      3374        26  POPC      O11            16.2192419051      -19.1166983975       17.7301461473  MEMB      26              0.0000000000
      3375        26  POPC      C1             16.0817182147      -20.0346038872       16.5959154024  MEMB      26              0.0000000000
      3376        26  POPC      HA             15.6651109913      -19.4958984218       15.7181022605  MEMB      26              0.0000000000
      3377        26  POPC      HB             15.3414843778      -20.8270981201       16.8374271851  MEMB      26              0.0000000000
      3378        26  POPC      C2             17.4601029627      -20.7083291008       16.3299026806  MEMB      26              0.0000000000
      3379        26  POPC      HS             17.6981507884      -21.2939715658       17.2435094466  MEMB      26              0.0000000000
      3380        26  POPC      O21            18.5026437797      -19.6978709910       16.2462810439  MEMB      26              0.0000000000
      3381        26  POPC      C21            19.8223888233      -20.0290856151       16.2796498959  MEMB      26              0.0000000000
      3382        26  POPC      O22            20.3149528204      -21.1203940457       16.1038800439  MEMB      26              0.0000000000
      3383        26  POPC      C22            20.5684029810      -18.6419016532       16.2492709894  MEMB      26              0.0000000000
      3384        26  POPC      H2R            21.5425251016      -18.8618223112       16.7361406075  MEMB      26              0.0000000000
      3385        26  POPC      H2S            19.9915297585      -17.8652921260       16.7955457025  MEMB      26              0.0000000000
      3386        26  POPC      C3             17.5810533321      -21.6860760264       15.0767471491  MEMB      26              0.0000000000
      3387        26  POPC      HX             16.8894217603      -22.5315362454       15.2796358088  MEMB      26              0.0000000000
      3388        26  POPC      HY             18.5469464016      -22.2327615936       15.1268104259  MEMB      26              0.0000000000
      3389        26  POPC      O31            17.3306149491      -21.0308405723       13.8345038475  MEMB      26              0.0000000000
      3390        26  POPC      C31            16.8002800427      -21.8025074195       12.8310324255  MEMB      26              0.0000000000
      3391        26  POPC      O32            16.7370208258      -23.0161641918       12.8524482510  MEMB      26              0.0000000000
      3392        26  POPC      C32            16.3350693912      -20.8233506303       11.7477623483  MEMB      26              0.0000000000
      3393        26  POPC      H2X            17.3192794059      -20.5311309758       11.3231928544  MEMB      26              0.0000000000
      3394        26  POPC      H2Y            15.8504782053      -19.8977657694       12.1256316327  MEMB      26              0.0000000000
      3395        26  POPC      C23            20.7953781645      -18.2020294649       14.7553747735  MEMB      26              0.0000000000
      3396        26  POPC      H3R            21.3210489655      -19.0538579099       14.2733168741  MEMB      26              0.0000000000
      3397        26  POPC      H3S            21.4798357765      -17.3303187777       14.8325693574  MEMB      26              0.0000000000
      3398        26  POPC      C24            19.4072372305      -17.7737252835       14.0500865429  MEMB      26              0.0000000000
      3399        26  POPC      H4R            18.8706242929      -17.3399480995       14.9208360701  MEMB      26              0.0000000000
      3400        26  POPC      H4S            18.9373448238      -18.7137261011       13.6896413974  MEMB      26              0.0000000000
      3401        26  POPC      C25            19.6989908463      -16.7974743409       12.9614334519  MEMB      26              0.0000000000
      3402        26  POPC      H5R            20.3590121416      -16.0277174621       13.4154898659  MEMB      26              0.0000000000
      3403        26  POPC      H5S            18.7160085458      -16.2927197571       12.8461529654  MEMB      26              0.0000000000
      3404        26  POPC      C26            20.4469504159      -17.2291502489       11.6469420494  MEMB      26              0.0000000000
      3405        26  POPC      H6R            21.2232818831      -17.9878352449       11.8836435890  MEMB      26              0.0000000000
      3406        26  POPC      H6S            20.9384588020      -16.2878453576       11.3203143863  MEMB      26              0.0000000000
      3407        26  POPC      C27            19.5297403821      -17.8308234659       10.5631518349  MEMB      26              0.0000000000
      3408        26  POPC      H7R            18.7446261811      -17.0753971669       10.3457861538  MEMB      26              0.0000000000
      3409        26  POPC      H7S            19.0973956860      -18.7892943919       10.9219452601  MEMB      26              0.0000000000
      3410        26  POPC      C28            20.1806933363      -18.2518240597        9.2628965980  MEMB      26              0.0000000000
      3411        26  POPC      H8R            20.8079941856      -17.4069896490        8.9064286210  MEMB      26              0.0000000000
      3412        26  POPC      H8S            19.3822133928      -18.4678076689        8.5212077687  MEMB      26              0.0000000000
      3413        26  POPC      C29            21.0586129528      -19.4735249933        9.3781060970  MEMB      26              0.0000000000
      3414        26  POPC      H91            22.0057835565      -19.2877926065        9.9057153550  MEMB      26              0.0000000000
      3415        26  POPC      C210           20.8313006442      -20.7810366071        8.9748272866  MEMB      26              0.0000000000
      3416        26  POPC      H101           21.6586477420      -21.4924542336        9.1140470925  MEMB      26              0.0000000000
      3417        26  POPC      C211           19.5705868381      -21.1817941679        8.2856155899  MEMB      26              0.0000000000
      3418        26  POPC      H11R           18.7183436212      -20.4694623001        8.3098124078  MEMB      26              0.0000000000
      3419        26  POPC      H11S           19.2762230024      -22.2088062898        8.5904376941  MEMB      26              0.0000000000
      3420        26  POPC      C212           19.7862045115      -21.1863350957        6.7694190730  MEMB      26              0.0000000000
      3421        26  POPC      H12R           20.3049896079      -22.0768772073        6.3545473119  MEMB      26              0.0000000000
      3422        26  POPC      H12S           20.3131389155      -20.2480220303        6.4933216092  MEMB      26              0.0000000000
      3423        26  POPC      C213           18.4280045723      -21.1960576391        5.9405835825  MEMB      26              0.0000000000
      3424        26  POPC      H13R           17.8987899208      -20.2534959488        6.1971574691  MEMB      26              0.0000000000
      3425        26  POPC      H13S           17.8388679452      -22.0523536224        6.3330063057  MEMB      26              0.0000000000
      3426        26  POPC      C214           18.4017793374      -21.1154587950        4.3442311317  MEMB      26              0.0000000000
      3427        26  POPC      H14R           17.3208642214      -21.2612005765        4.1328008026  MEMB      26              0.0000000000
      3428        26  POPC      H14S           18.9968953284      -21.9480745511        3.9119018711  MEMB      26              0.0000000000
      3429        26  POPC      C215           18.9180698812      -19.8215625548        3.8152359688  MEMB      26              0.0000000000
      3430        26  POPC      H15R           19.0908093643      -19.9879934977        2.7304405693  MEMB      26              0.0000000000
      3431        26  POPC      H15S           19.8551959943      -19.7015058856        4.3997891822  MEMB      26              0.0000000000
      3432        26  POPC      C216           17.9573528383      -18.6459183440        4.0922350010  MEMB      26              0.0000000000
      3433        26  POPC      H16R           17.9036044730      -18.4783660094        5.1892115029  MEMB      26              0.0000000000
      3434        26  POPC      H16S           16.9152228622      -18.7908079270        3.7354528332  MEMB      26              0.0000000000
      3435        26  POPC      C217           18.3763275834      -17.3904380165        3.3776370310  MEMB      26              0.0000000000
      3436        26  POPC      H17R           17.8424295922      -16.5190536886        3.8134846809  MEMB      26              0.0000000000
      3437        26  POPC      H17S           18.0862333518      -17.4350417769        2.3061080626  MEMB      26              0.0000000000
      3438        26  POPC      C218           19.8566531305      -17.0689149646        3.2239554009  MEMB      26              0.0000000000
      3439        26  POPC      H18R           20.5647533284      -17.5042355689        3.9611198168  MEMB      26              0.0000000000
      3440        26  POPC      H18S           20.0690218857      -15.9787844303        3.1950420935  MEMB      26              0.0000000000
      3441        26  POPC      H18T           20.1550330381      -17.5948117695        2.2919021879  MEMB      26              0.0000000000
      3442        26  POPC      C33            15.4076647162      -21.5984315304       10.7896732410  MEMB      26              0.0000000000
      3443        26  POPC      H3X            14.5331165758      -22.0836521463       11.2734582200  MEMB      26              0.0000000000
      3444        26  POPC      H3Y            16.0897031281      -22.3552756840       10.3465806356  MEMB      26              0.0000000000
      3445        26  POPC      C34            14.9150436536      -20.7858171976        9.5542639347  MEMB      26              0.0000000000
      3446        26  POPC      H4X            14.2638534891      -19.9717006651        9.9383037589  MEMB      26              0.0000000000
      3447        26  POPC      H4Y            14.2765454996      -21.4565401695        8.9404465782  MEMB      26              0.0000000000
      3448        26  POPC      C35            16.0035263997      -20.3652902231        8.5188139215  MEMB      26              0.0000000000
      3449        26  POPC      H5X            16.6543250711      -21.1672960769        8.1094633271  MEMB      26              0.0000000000
      3450        26  POPC      H5Y            16.7436094976      -19.7507084567        9.0745909857  MEMB      26              0.0000000000
      3451        26  POPC      C36            15.4568409556      -19.5119879216        7.4356049242  MEMB      26              0.0000000000
      3452        26  POPC      H6X            14.8158405992      -20.1105986414        6.7536186970  MEMB      26              0.0000000000
      3453        26  POPC      H6Y            16.3379299805      -19.2639812297        6.8059263293  MEMB      26              0.0000000000
      3454        26  POPC      C37            14.7639737462      -18.2723648471        7.8307688428  MEMB      26              0.0000000000
      3455        26  POPC      H7X            15.3913448586      -17.8190074993        8.6277588012  MEMB      26              0.0000000000
      3456        26  POPC      H7Y            13.7917174418      -18.5625283898        8.2833651294  MEMB      26              0.0000000000
      3457        26  POPC      C38            14.6936450470      -17.3012321802        6.6435596327  MEMB      26              0.0000000000
      3458        26  POPC      H8X            15.7614884146      -17.1367299415        6.3847726170  MEMB      26              0.0000000000
      3459        26  POPC      H8Y            14.1869409800      -16.3597593568        6.9455539011  MEMB      26              0.0000000000
      3460        26  POPC      C39            14.0564336853      -17.8380462147        5.2858221762  MEMB      26              0.0000000000
      3461        26  POPC      H9X            12.9821993794      -18.0461423823        5.4782734643  MEMB      26              0.0000000000
      3462        26  POPC      H9Y            14.5394093037      -18.8097113547        5.0472368946  MEMB      26              0.0000000000
      3463        26  POPC      C310           14.1723873674      -16.8777698995        4.1435799413  MEMB      26              0.0000000000
      3464        26  POPC      H10X           15.1283860354      -16.3416553249        3.9620073487  MEMB      26              0.0000000000
      3465        26  POPC      H10Y           13.3467429160      -16.1572039644        4.3263826702  MEMB      26              0.0000000000
      3466        26  POPC      C311           13.6650391714      -17.6526472063        2.8493496463  MEMB      26              0.0000000000
      3467        26  POPC      H11X           12.5996854460      -17.9000944537        3.0445718460  MEMB      26              0.0000000000
      3468        26  POPC      H11Y           14.1350178350      -18.6215577297        2.5761209081  MEMB      26              0.0000000000
      3469        26  POPC      C312           13.8583882684      -16.8311737880        1.5223673742  MEMB      26              0.0000000000
      3470        26  POPC      H12X           13.9247430581      -15.7417196454        1.7297517549  MEMB      26              0.0000000000
      3471        26  POPC      H12Y           12.9513670369      -17.1043800399        0.9418569730  MEMB      26              0.0000000000
      3472        26  POPC      C313           15.0668802661      -17.3369251742        0.6634752300  MEMB      26              0.0000000000
      3473        26  POPC      H13X           14.8524916231      -18.4224654422        0.5636711059  MEMB      26              0.0000000000
      3474        26  POPC      H13Y           15.9804495547      -17.1901539486        1.2784315294  MEMB      26              0.0000000000
      3475        26  POPC      C314           15.3204177776      -16.5947717229       -0.6566448276  MEMB      26              0.0000000000
      3476        26  POPC      H14X           15.7766475551      -15.6034259955       -0.4482976393  MEMB      26              0.0000000000
      3477        26  POPC      H14Y           14.3761952613      -16.3980345074       -1.2080609336  MEMB      26              0.0000000000
      3478        26  POPC      C315           16.2351418994      -17.3923733277       -1.5814942550  MEMB      26              0.0000000000
      3479        26  POPC      H15X           16.3251858563      -16.7992048801       -2.5165685904  MEMB      26              0.0000000000
      3480        26  POPC      H15Y           15.7566105580      -18.3797996601       -1.7556156825  MEMB      26              0.0000000000
      3481        26  POPC      C316           17.6634207746      -17.6315143951       -0.9695802109  MEMB      26              0.0000000000
      3482        26  POPC      H16X           17.6619466593      -18.1472803221        0.0144444663  MEMB      26              0.0000000000
      3483        26  POPC      H16Y           18.1969247169      -16.6725524498       -0.7961247518  MEMB      26              0.0000000000
      3484        26  POPC      H16Z           18.2970560155      -18.1774577756       -1.7008614329  MEMB      26              0.0000000000
      3485        27  POPC      N             -16.0262032477       17.4105721854       20.6992436622  MEMB      27              0.0000000000
      3486        27  POPC      C12           -14.7321439073       17.4289795699       19.9012822232  MEMB      27              0.0000000000
      3487        27  POPC      H12A          -14.7166265814       16.5091362213       19.3355551009  MEMB      27              0.0000000000
      3488        27  POPC      H12B          -13.9791594162       17.2676032066       20.6584954297  MEMB      27              0.0000000000
      3489        27  POPC      C13           -16.0560729605       18.6197378622       21.5687999432  MEMB      27              0.0000000000
      3490        27  POPC      H13A          -15.7970079005       19.5218828984       21.0345531526  MEMB      27              0.0000000000
      3491        27  POPC      H13B          -17.0634994601       18.8187614575       21.9032865491  MEMB      27              0.0000000000
      3492        27  POPC      H13C          -15.4194034670       18.4485642965       22.4242245573  MEMB      27              0.0000000000
      3493        27  POPC      C14           -17.2220210669       17.2888574080       19.8126492759  MEMB      27              0.0000000000
      3494        27  POPC      H14A          -17.3648756976       18.2938559443       19.4439075029  MEMB      27              0.0000000000
      3495        27  POPC      H14B          -16.9245029788       16.5931080962       19.0420546842  MEMB      27              0.0000000000
      3496        27  POPC      H14C          -18.0945426600       17.0947906258       20.4188205995  MEMB      27              0.0000000000
      3497        27  POPC      C15           -15.9503729114       16.1813267901       21.6272699550  MEMB      27              0.0000000000
      3498        27  POPC      H15A          -14.9581663418       16.1967769721       22.0535182044  MEMB      27              0.0000000000
      3499        27  POPC      H15B          -16.0119688980       15.2808499347       21.0341870368  MEMB      27              0.0000000000
      3500        27  POPC      H15C          -16.7467285618       16.2436855242       22.3541326378  MEMB      27              0.0000000000
      3501        27  POPC      C11           -14.3481054787       18.6314670573       19.0533546883  MEMB      27              0.0000000000
      3502        27  POPC      H11A          -13.3969950314       18.5044293881       18.4933803505  MEMB      27              0.0000000000
      3503        27  POPC      H11B          -14.0514074067       19.3942678337       19.8046376992  MEMB      27              0.0000000000
      3504        27  POPC      P             -15.0193082844       20.3992465857       17.2243919568  MEMB      27              0.0000000000
      3505        27  POPC      O13           -16.2660387896       21.2604177944       17.1919908597  MEMB      27              0.0000000000
      3506        27  POPC      O14           -14.5895145614       19.8566388728       15.9204925964  MEMB      27              0.0000000000
      3507        27  POPC      O12           -15.2573802558       19.2130707942       18.1739785221  MEMB      27              0.0000000000
      3508        27  POPC      O11           -13.8402448946       21.2500829366       17.8265462746  MEMB      27              0.0000000000
      3509        27  POPC      C1            -14.0082749735       22.2686438414       18.7242150786  MEMB      27              0.0000000000
      3510        27  POPC      HA            -13.9504367805       21.8023166016       19.7309497986  MEMB      27              0.0000000000
      3511        27  POPC      HB            -15.0186580017       22.7299617473       18.7493682509  MEMB      27              0.0000000000
      3512        27  POPC      C2            -12.9642125577       23.4143672448       18.3241133059  MEMB      27              0.0000000000
      3513        27  POPC      HS            -13.2516748328       24.3272094076       18.8883879193  MEMB      27              0.0000000000
      3514        27  POPC      O21           -12.9708817824       23.5289583168       16.9614187724  MEMB      27              0.0000000000
      3515        27  POPC      C21           -14.0879744433       24.0516992210       16.3725619596  MEMB      27              0.0000000000
      3516        27  POPC      O22           -14.8341211650       24.8908623091       16.8337434301  MEMB      27              0.0000000000
      3517        27  POPC      C22           -14.2271033328       23.4707699515       14.9473616916  MEMB      27              0.0000000000
      3518        27  POPC      H2R           -14.2010733384       22.3605409618       14.9151947790  MEMB      27              0.0000000000
      3519        27  POPC      H2S           -13.4171821186       23.9119419899       14.3279134949  MEMB      27              0.0000000000
      3520        27  POPC      C3            -11.5772936051       22.9601346892       18.8197188277  MEMB      27              0.0000000000
      3521        27  POPC      HX            -11.6423465870       22.7487224530       19.9084768169  MEMB      27              0.0000000000
      3522        27  POPC      HY            -10.7505201763       23.6905828512       18.6885234120  MEMB      27              0.0000000000
      3523        27  POPC      O31           -11.2495981132       21.7039561147       18.1569393456  MEMB      27              0.0000000000
      3524        27  POPC      C31           -10.4399769264       21.7143872485       17.1478820076  MEMB      27              0.0000000000
      3525        27  POPC      O32            -9.8350647377       22.7337431473       16.7695305970  MEMB      27              0.0000000000
      3526        27  POPC      C32           -10.3192162439       20.3504862775       16.4413754841  MEMB      27              0.0000000000
      3527        27  POPC      H2X           -10.8354654145       19.5685024515       17.0382920197  MEMB      27              0.0000000000
      3528        27  POPC      H2Y            -9.2797922726       19.9590815639       16.4145194816  MEMB      27              0.0000000000
      3529        27  POPC      C23           -15.5703998995       23.7938906771       14.1787137331  MEMB      27              0.0000000000
      3530        27  POPC      H3R           -15.6481547915       24.9017817006       14.1495131379  MEMB      27              0.0000000000
      3531        27  POPC      H3S           -16.4140732267       23.3404050143       14.7416411137  MEMB      27              0.0000000000
      3532        27  POPC      C24           -15.5547108533       23.2227517743       12.6629801522  MEMB      27              0.0000000000
      3533        27  POPC      H4R           -16.5363705396       23.4249466551       12.1836241495  MEMB      27              0.0000000000
      3534        27  POPC      H4S           -15.3428838221       22.1355003663       12.7486238002  MEMB      27              0.0000000000
      3535        27  POPC      C25           -14.4408874779       23.7263828171       11.7370384109  MEMB      27              0.0000000000
      3536        27  POPC      H5R           -13.5907022030       23.2436407273       12.2647370306  MEMB      27              0.0000000000
      3537        27  POPC      H5S           -14.1501182171       24.7950825273       11.8245331717  MEMB      27              0.0000000000
      3538        27  POPC      C26           -14.6199457367       23.2339639862       10.3018094415  MEMB      27              0.0000000000
      3539        27  POPC      H6R           -15.6400637054       23.5951520514       10.0503665851  MEMB      27              0.0000000000
      3540        27  POPC      H6S           -14.6373499849       22.1293072745       10.1845422017  MEMB      27              0.0000000000
      3541        27  POPC      C27           -13.5211235519       23.7946198835        9.3635367482  MEMB      27              0.0000000000
      3542        27  POPC      H7R           -13.5098650699       24.8968978428        9.5020208043  MEMB      27              0.0000000000
      3543        27  POPC      H7S           -13.8960034676       23.5183148521        8.3548533551  MEMB      27              0.0000000000
      3544        27  POPC      C28           -12.1588360859       23.1463294975        9.5179515202  MEMB      27              0.0000000000
      3545        27  POPC      H8R           -11.8598104780       23.2775309621       10.5798788648  MEMB      27              0.0000000000
      3546        27  POPC      H8S           -11.4904227140       23.7114489640        8.8337106707  MEMB      27              0.0000000000
      3547        27  POPC      C29           -12.2235761294       21.6406027955        9.2962979560  MEMB      27              0.0000000000
      3548        27  POPC      H91           -12.6896924208       21.0806619138       10.1204349382  MEMB      27              0.0000000000
      3549        27  POPC      C210          -11.7946337280       20.9071435987        8.2765459103  MEMB      27              0.0000000000
      3550        27  POPC      H101          -12.0995029600       19.8523713816        8.2093882344  MEMB      27              0.0000000000
      3551        27  POPC      C211          -11.2184426653       21.4088203134        6.9865347433  MEMB      27              0.0000000000
      3552        27  POPC      H11R          -10.5848792853       20.6283079280        6.5135456771  MEMB      27              0.0000000000
      3553        27  POPC      H11S          -10.6025727823       22.3126300468        7.1818640064  MEMB      27              0.0000000000
      3554        27  POPC      C212          -12.2654540742       21.7997960572        5.8353192844  MEMB      27              0.0000000000
      3555        27  POPC      H12R          -12.8384062438       22.7044888099        6.1312549936  MEMB      27              0.0000000000
      3556        27  POPC      H12S          -12.9544726197       20.9743396410        5.5556836184  MEMB      27              0.0000000000
      3557        27  POPC      C213          -11.5613194787       22.2061201866        4.4347902942  MEMB      27              0.0000000000
      3558        27  POPC      H13R          -10.9523304781       21.3390324165        4.1007064518  MEMB      27              0.0000000000
      3559        27  POPC      H13S          -10.9652961673       23.1157972349        4.6618694587  MEMB      27              0.0000000000
      3560        27  POPC      C214          -12.3172934564       22.5527320257        3.1310272215  MEMB      27              0.0000000000
      3561        27  POPC      H14R          -13.1051223245       23.2611050603        3.4654737086  MEMB      27              0.0000000000
      3562        27  POPC      H14S          -12.9034492139       21.6829021537        2.7647777748  MEMB      27              0.0000000000
      3563        27  POPC      C215          -11.4568014126       23.1935393911        2.0252495646  MEMB      27              0.0000000000
      3564        27  POPC      H15R          -10.7364873126       23.8927376153        2.5012646294  MEMB      27              0.0000000000
      3565        27  POPC      H15S          -12.0954421906       23.7555770106        1.3107050368  MEMB      27              0.0000000000
      3566        27  POPC      C216          -10.6131109966       22.1784192249        1.2012040740  MEMB      27              0.0000000000
      3567        27  POPC      H16R           -9.8497945806       21.7410862718        1.8797391242  MEMB      27              0.0000000000
      3568        27  POPC      H16S          -10.0851255315       22.7871448892        0.4363485716  MEMB      27              0.0000000000
      3569        27  POPC      C217          -11.3903651614       21.0669645076        0.4704961091  MEMB      27              0.0000000000
      3570        27  POPC      H17R          -12.1361995079       21.6613618791       -0.0993662623  MEMB      27              0.0000000000
      3571        27  POPC      H17S          -11.9332179105       20.4836520321        1.2446924035  MEMB      27              0.0000000000
      3572        27  POPC      C218          -10.6870588288       20.2642007789       -0.5866278241  MEMB      27              0.0000000000
      3573        27  POPC      H18R          -10.5624915093       20.8531439129       -1.5204100622  MEMB      27              0.0000000000
      3574        27  POPC      H18S          -11.3082106709       19.3889858442       -0.8738384199  MEMB      27              0.0000000000
      3575        27  POPC      H18T           -9.7167848842       19.9019583274       -0.1845465340  MEMB      27              0.0000000000
      3576        27  POPC      C33           -10.9322173455       20.4273348058       15.0609976561  MEMB      27              0.0000000000
      3577        27  POPC      H3X           -10.4061313707       21.3013008052       14.6208409757  MEMB      27              0.0000000000
      3578        27  POPC      H3Y           -12.0012036125       20.7281955891       15.0937402658  MEMB      27              0.0000000000
      3579        27  POPC      C34           -10.6872651983       19.1923031456       14.1724894454  MEMB      27              0.0000000000
      3580        27  POPC      H4X           -11.0601322127       18.2697816476       14.6667009853  MEMB      27              0.0000000000
      3581        27  POPC      H4Y            -9.6128976631       18.9460437577       14.0331629743  MEMB      27              0.0000000000
      3582        27  POPC      C35           -11.1704491136       19.1706249014       12.6976295373  MEMB      27              0.0000000000
      3583        27  POPC      H5X           -10.7106983862       18.2775116079       12.2229728697  MEMB      27              0.0000000000
      3584        27  POPC      H5Y           -10.9212878514       20.1294981654       12.1948357385  MEMB      27              0.0000000000
      3585        27  POPC      C36           -12.7104593066       18.9842736916       12.5277268286  MEMB      27              0.0000000000
      3586        27  POPC      H6X           -13.1539676702       19.5755655575       11.6982720761  MEMB      27              0.0000000000
      3587        27  POPC      H6Y           -13.0471479415       19.3900747759       13.5056262817  MEMB      27              0.0000000000
      3588        27  POPC      C37           -13.2027837959       17.5325742430       12.5505355319  MEMB      27              0.0000000000
      3589        27  POPC      H7X           -14.2515224743       17.5912262493       12.9125136177  MEMB      27              0.0000000000
      3590        27  POPC      H7Y           -12.5188893309       16.8641375148       13.1160457276  MEMB      27              0.0000000000
      3591        27  POPC      C38           -13.1020858002       16.9881874266       11.1154350019  MEMB      27              0.0000000000
      3592        27  POPC      H8X           -13.1247698845       15.8774878026       11.1277665910  MEMB      27              0.0000000000
      3593        27  POPC      H8Y           -12.1256138593       17.2996908404       10.6867286991  MEMB      27              0.0000000000
      3594        27  POPC      C39           -14.3345786031       17.5179487300       10.3571697091  MEMB      27              0.0000000000
      3595        27  POPC      H9X           -14.4549519169       18.6218844971       10.3911882925  MEMB      27              0.0000000000
      3596        27  POPC      H9Y           -15.2361495155       17.0397575977       10.7962877689  MEMB      27              0.0000000000
      3597        27  POPC      C310          -14.2806429408       17.3258962920        8.8019579882  MEMB      27              0.0000000000
      3598        27  POPC      H10X          -14.0331668103       16.2448419412        8.7356408110  MEMB      27              0.0000000000
      3599        27  POPC      H10Y          -13.5596652797       17.9877130151        8.2761142672  MEMB      27              0.0000000000
      3600        27  POPC      C311          -15.5291262154       17.6125218241        8.0280221059  MEMB      27              0.0000000000
      3601        27  POPC      H11X          -15.8973195500       18.6603299556        8.0572288431  MEMB      27              0.0000000000
      3602        27  POPC      H11Y          -16.3442812177       16.9959766371        8.4635849439  MEMB      27              0.0000000000
      3603        27  POPC      C312          -15.4105282422       17.2896632567        6.5002677452  MEMB      27              0.0000000000
      3604        27  POPC      H12X          -16.4555994296       17.3943543429        6.1380704241  MEMB      27              0.0000000000
      3605        27  POPC      H12Y          -15.1253541748       16.2201375322        6.4048125459  MEMB      27              0.0000000000
      3606        27  POPC      C313          -14.5139895659       18.1226865032        5.6703084993  MEMB      27              0.0000000000
      3607        27  POPC      H13X          -13.4445601734       18.3043725801        5.9103752541  MEMB      27              0.0000000000
      3608        27  POPC      H13Y          -14.8791967410       19.1709026796        5.6235399728  MEMB      27              0.0000000000
      3609        27  POPC      C314          -14.3293228287       17.5943410377        4.2552887630  MEMB      27              0.0000000000
      3610        27  POPC      H14X          -15.1127976793       16.8106965885        4.1753548854  MEMB      27              0.0000000000
      3611        27  POPC      H14Y          -13.3724790465       17.0509990272        4.1018266932  MEMB      27              0.0000000000
      3612        27  POPC      C315          -14.3609576733       18.7336064740        3.2898335936  MEMB      27              0.0000000000
      3613        27  POPC      H15X          -13.5255753173       19.4572251783        3.4031165590  MEMB      27              0.0000000000
      3614        27  POPC      H15Y          -15.3168375181       19.2996106333        3.2739031885  MEMB      27              0.0000000000
      3615        27  POPC      C316          -14.3432478648       18.2583885789        1.7773402634  MEMB      27              0.0000000000
      3616        27  POPC      H16X          -14.3139319481       19.0646798031        1.0135638704  MEMB      27              0.0000000000
      3617        27  POPC      H16Y          -15.3292555278       17.7647413672        1.6416121586  MEMB      27              0.0000000000
      3618        27  POPC      H16Z          -13.4775315426       17.5767973700        1.6348982313  MEMB      27              0.0000000000
      3619        28  POPC      N             -13.9608956313      -19.1845696073       17.0582758701  MEMB      28              0.0000000000
      3620        28  POPC      C12           -14.8569124779      -20.2962158044       17.4535851569  MEMB      28              0.0000000000
      3621        28  POPC      H12A          -14.8814026732      -21.0739024093       16.7045834303  MEMB      28              0.0000000000
      3622        28  POPC      H12B          -15.9078854308      -20.0554236446       17.3913359316  MEMB      28              0.0000000000
      3623        28  POPC      C13           -14.2162162313      -18.0306712304       17.9678688328  MEMB      28              0.0000000000
      3624        28  POPC      H13A          -15.2871719784      -17.9375914034       17.8639949824  MEMB      28              0.0000000000
      3625        28  POPC      H13B          -13.9310561967      -18.3600479017       18.9560968991  MEMB      28              0.0000000000
      3626        28  POPC      H13C          -13.5768334342      -17.1998397525       17.7084293769  MEMB      28              0.0000000000
      3627        28  POPC      C14           -12.5067788992      -19.4419564927       17.3628479390  MEMB      28              0.0000000000
      3628        28  POPC      H14A          -12.4362497086      -19.8878665707       18.3439646582  MEMB      28              0.0000000000
      3629        28  POPC      H14B          -12.0329769094      -20.1023095720       16.6516197516  MEMB      28              0.0000000000
      3630        28  POPC      H14C          -11.9682385893      -18.5077066150       17.4224425164  MEMB      28              0.0000000000
      3631        28  POPC      C15           -14.0298665402      -18.8836806488       15.5769879655  MEMB      28              0.0000000000
      3632        28  POPC      H15A          -13.3717788336      -18.0537765523       15.3658487233  MEMB      28              0.0000000000
      3633        28  POPC      H15B          -15.0630280962      -18.5934872724       15.4554761635  MEMB      28              0.0000000000
      3634        28  POPC      H15C          -13.7722315934      -19.7662127594       15.0102768946  MEMB      28              0.0000000000
      3635        28  POPC      C11           -14.7433817545      -20.9119986202       18.8993788443  MEMB      28              0.0000000000
      3636        28  POPC      H11A          -13.6902505163      -21.1686769701       19.1430009812  MEMB      28              0.0000000000
      3637        28  POPC      H11B          -15.3354966826      -21.8474738983       18.9921520557  MEMB      28              0.0000000000
      3638        28  POPC      P             -16.1848779367      -20.3284307288       21.0207246568  MEMB      28              0.0000000000
      3639        28  POPC      O13           -16.6625715513      -19.0688938351       21.6039351200  MEMB      28              0.0000000000
      3640        28  POPC      O14           -15.5719048738      -21.3561642680       22.0224273686  MEMB      28              0.0000000000
      3641        28  POPC      O12           -15.2195762328      -19.9351145533       19.7796308083  MEMB      28              0.0000000000
      3642        28  POPC      O11           -17.3430828908      -21.0731781229       20.2543374816  MEMB      28              0.0000000000
      3643        28  POPC      C1            -18.3894827103      -20.2822683551       19.6103323607  MEMB      28              0.0000000000
      3644        28  POPC      HA            -17.9727919873      -19.6104496200       18.8297240829  MEMB      28              0.0000000000
      3645        28  POPC      HB            -18.8004745204      -19.5159834776       20.3018627820  MEMB      28              0.0000000000
      3646        28  POPC      C2            -19.4055022428      -21.1091453380       18.8152563791  MEMB      28              0.0000000000
      3647        28  POPC      HS            -19.9966680928      -21.7746804624       19.4800171933  MEMB      28              0.0000000000
      3648        28  POPC      O21           -18.5921944710      -21.9248311782       17.8855170147  MEMB      28              0.0000000000
      3649        28  POPC      C21           -18.0268484106      -23.0118441164       18.2598017258  MEMB      28              0.0000000000
      3650        28  POPC      O22           -18.1260617088      -23.6140079005       19.3298561895  MEMB      28              0.0000000000
      3651        28  POPC      C22           -17.0635153377      -23.4701359820       17.0747182165  MEMB      28              0.0000000000
      3652        28  POPC      H2R           -16.4424781932      -22.5717978246       16.8707029635  MEMB      28              0.0000000000
      3653        28  POPC      H2S           -17.7111482901      -23.8652927302       16.2630878106  MEMB      28              0.0000000000
      3654        28  POPC      C3            -20.3534046206      -20.1832171213       17.9074106772  MEMB      28              0.0000000000
      3655        28  POPC      HX            -20.8962370180      -19.4834921001       18.5782598573  MEMB      28              0.0000000000
      3656        28  POPC      HY            -21.1429722736      -20.7407869393       17.3596704883  MEMB      28              0.0000000000
      3657        28  POPC      O31           -19.7334985953      -19.3211699711       16.9475981977  MEMB      28              0.0000000000
      3658        28  POPC      C31           -19.3607583106      -19.8775724008       15.7540744290  MEMB      28              0.0000000000
      3659        28  POPC      O32           -19.5345357721      -21.0247630344       15.4046392396  MEMB      28              0.0000000000
      3660        28  POPC      C32           -18.4754727558      -18.9293547056       15.0176390602  MEMB      28              0.0000000000
      3661        28  POPC      H2X           -17.4398991133      -19.3315244570       15.0046890452  MEMB      28              0.0000000000
      3662        28  POPC      H2Y           -18.3659115489      -17.9820650643       15.5876909954  MEMB      28              0.0000000000
      3663        28  POPC      C23           -16.0508863962      -24.6075951272       17.4787413830  MEMB      28              0.0000000000
      3664        28  POPC      H3R           -16.6744700029      -25.4945263719       17.7212644706  MEMB      28              0.0000000000
      3665        28  POPC      H3S           -15.3998134079      -24.3770660381       18.3489603942  MEMB      28              0.0000000000
      3666        28  POPC      C24           -15.1918360683      -25.0308948931       16.2188847245  MEMB      28              0.0000000000
      3667        28  POPC      H4R           -16.0287797617      -25.2704117396       15.5286110056  MEMB      28              0.0000000000
      3668        28  POPC      H4S           -14.6334863287      -25.9428164898       16.5204903514  MEMB      28              0.0000000000
      3669        28  POPC      C25           -14.3231391774      -23.8695560194       15.7728567619  MEMB      28              0.0000000000
      3670        28  POPC      H5R           -13.3188267052      -24.3281317967       15.6488173851  MEMB      28              0.0000000000
      3671        28  POPC      H5S           -14.2335423694      -23.1175744952       16.5857635039  MEMB      28              0.0000000000
      3672        28  POPC      C26           -14.6713060432      -23.0248647086       14.5663569501  MEMB      28              0.0000000000
      3673        28  POPC      H6R           -14.2691934532      -21.9938020215       14.6640125801  MEMB      28              0.0000000000
      3674        28  POPC      H6S           -15.7630591506      -23.0675831948       14.3649336241  MEMB      28              0.0000000000
      3675        28  POPC      C27           -14.0490122896      -23.6313646252       13.2392182687  MEMB      28              0.0000000000
      3676        28  POPC      H7R           -14.7936764262      -24.4420846210       13.0891207357  MEMB      28              0.0000000000
      3677        28  POPC      H7S           -13.0197301996      -23.9734239038       13.4798321269  MEMB      28              0.0000000000
      3678        28  POPC      C28           -13.9771241776      -22.7042817149       12.0447625778  MEMB      28              0.0000000000
      3679        28  POPC      H8R           -13.5657292942      -23.2614418935       11.1760581406  MEMB      28              0.0000000000
      3680        28  POPC      H8S           -13.3829436170      -21.8020633822       12.3041321690  MEMB      28              0.0000000000
      3681        28  POPC      C29           -15.4021126994      -22.1406716596       11.8178586793  MEMB      28              0.0000000000
      3682        28  POPC      H91           -15.3433095003      -21.0779416587       12.0956125328  MEMB      28              0.0000000000
      3683        28  POPC      C210          -16.4499214658      -22.6855911715       11.2182511000  MEMB      28              0.0000000000
      3684        28  POPC      H101          -17.4182843752      -22.1936945218       11.3923524686  MEMB      28              0.0000000000
      3685        28  POPC      C211          -16.4683334794      -24.1173041596       10.6704386233  MEMB      28              0.0000000000
      3686        28  POPC      H11R          -17.4219937821      -24.5198416898       11.0739435760  MEMB      28              0.0000000000
      3687        28  POPC      H11S          -15.6694208961      -24.7392350777       11.1278899545  MEMB      28              0.0000000000
      3688        28  POPC      C212          -16.6182767324      -24.1388020750        9.1404467246  MEMB      28              0.0000000000
      3689        28  POPC      H12R          -17.2844601373      -23.3274943575        8.7767156975  MEMB      28              0.0000000000
      3690        28  POPC      H12S          -17.1281873471      -25.0636508202        8.7955309783  MEMB      28              0.0000000000
      3691        28  POPC      C213          -15.2503114016      -23.9392983073        8.3983701081  MEMB      28              0.0000000000
      3692        28  POPC      H13R          -14.4673968407      -24.7090109661        8.5683945286  MEMB      28              0.0000000000
      3693        28  POPC      H13S          -14.8423792353      -22.9243541456        8.5927941553  MEMB      28              0.0000000000
      3694        28  POPC      C214          -15.4237028154      -23.8759617826        6.8157049449  MEMB      28              0.0000000000
      3695        28  POPC      H14R          -16.1100233049      -23.0666722132        6.4865607684  MEMB      28              0.0000000000
      3696        28  POPC      H14S          -15.9874240350      -24.8093567804        6.6028370894  MEMB      28              0.0000000000
      3697        28  POPC      C215          -14.0991915036      -23.9900123241        6.0566414741  MEMB      28              0.0000000000
      3698        28  POPC      H15R          -13.6948862968      -24.9837824067        6.3452235241  MEMB      28              0.0000000000
      3699        28  POPC      H15S          -13.4462484990      -23.3061574715        6.6400178835  MEMB      28              0.0000000000
      3700        28  POPC      C216          -14.3071747841      -23.8235974019        4.5839143613  MEMB      28              0.0000000000
      3701        28  POPC      H16R          -14.8452557519      -24.7149856652        4.1963359471  MEMB      28              0.0000000000
      3702        28  POPC      H16S          -13.3387197289      -23.8518878741        4.0402089021  MEMB      28              0.0000000000
      3703        28  POPC      C217          -15.1376547573      -22.6366868967        4.0192708140  MEMB      28              0.0000000000
      3704        28  POPC      H17R          -14.7509726984      -21.7087190350        4.4922124465  MEMB      28              0.0000000000
      3705        28  POPC      H17S          -16.1592613681      -22.8157382378        4.4174944568  MEMB      28              0.0000000000
      3706        28  POPC      C218          -15.2002763206      -22.3554228184        2.5206288991  MEMB      28              0.0000000000
      3707        28  POPC      H18R          -14.9464751460      -23.2914022095        1.9785508068  MEMB      28              0.0000000000
      3708        28  POPC      H18S          -14.5393572302      -21.5149666072        2.2187327619  MEMB      28              0.0000000000
      3709        28  POPC      H18T          -16.1806334109      -21.9199424958        2.2315307706  MEMB      28              0.0000000000
      3710        28  POPC      C33           -18.9176703431      -18.5405405598       13.6077271802  MEMB      28              0.0000000000
      3711        28  POPC      H3X           -20.0219986016      -18.4256273067       13.5680394538  MEMB      28              0.0000000000
      3712        28  POPC      H3Y           -18.4206235848      -19.3487647513       13.0297660434  MEMB      28              0.0000000000
      3713        28  POPC      C34           -18.2556012529      -17.2478450260       12.9632701676  MEMB      28              0.0000000000
      3714        28  POPC      H4X           -17.2343371574      -17.1021460608       13.3757173691  MEMB      28              0.0000000000
      3715        28  POPC      H4Y           -18.7856836112      -16.3602526326       13.3701036409  MEMB      28              0.0000000000
      3716        28  POPC      C35           -18.2207501056      -17.2071065106       11.4413078747  MEMB      28              0.0000000000
      3717        28  POPC      H5X           -18.3453727408      -16.2127945209       10.9615858461  MEMB      28              0.0000000000
      3718        28  POPC      H5Y           -19.0845972822      -17.8222428447       11.1101036025  MEMB      28              0.0000000000
      3719        28  POPC      C36           -16.9103956728      -17.7618235965       10.8971945565  MEMB      28              0.0000000000
      3720        28  POPC      H6X           -16.7972569501      -18.7467095047       11.3987127728  MEMB      28              0.0000000000
      3721        28  POPC      H6Y           -16.0854973723      -17.0763800706       11.1870754253  MEMB      28              0.0000000000
      3722        28  POPC      C37           -16.8249901046      -17.9048917493        9.3578861900  MEMB      28              0.0000000000
      3723        28  POPC      H7X           -17.5208410193      -18.7196058349        9.0640264252  MEMB      28              0.0000000000
      3724        28  POPC      H7Y           -15.7983651821      -18.1435396536        9.0065899177  MEMB      28              0.0000000000
      3725        28  POPC      C38           -17.2476782942      -16.7730807649        8.4782050640  MEMB      28              0.0000000000
      3726        28  POPC      H8X           -16.7240519186      -15.8434472755        8.7879111169  MEMB      28              0.0000000000
      3727        28  POPC      H8Y           -18.2545434339      -16.3421782903        8.6649320628  MEMB      28              0.0000000000
      3728        28  POPC      C39           -17.0689787127      -16.9765407042        6.9284944119  MEMB      28              0.0000000000
      3729        28  POPC      H9X           -17.8021410697      -17.6659391799        6.4578311937  MEMB      28              0.0000000000
      3730        28  POPC      H9Y           -16.1392494472      -17.5695260011        6.7932440014  MEMB      28              0.0000000000
      3731        28  POPC      C310          -17.0714041891      -15.7279213860        6.0436134577  MEMB      28              0.0000000000
      3732        28  POPC      H10X          -16.4393541302      -14.9544110922        6.5299420538  MEMB      28              0.0000000000
      3733        28  POPC      H10Y          -18.0965588549      -15.3004288922        6.0185320138  MEMB      28              0.0000000000
      3734        28  POPC      C311          -16.6826637816      -15.9803307556        4.6008090278  MEMB      28              0.0000000000
      3735        28  POPC      H11X          -15.7426538034      -16.5538096071        4.7485407685  MEMB      28              0.0000000000
      3736        28  POPC      H11Y          -16.3940583381      -15.0705963654        4.0321171586  MEMB      28              0.0000000000
      3737        28  POPC      C312          -17.6550503852      -16.7906456063        3.7212735203  MEMB      28              0.0000000000
      3738        28  POPC      H12X          -17.9785234534      -16.1192019302        2.8973501521  MEMB      28              0.0000000000
      3739        28  POPC      H12Y          -18.6165095639      -16.8725028389        4.2719247473  MEMB      28              0.0000000000
      3740        28  POPC      C313          -17.0215306174      -18.0389261397        3.0255118789  MEMB      28              0.0000000000
      3741        28  POPC      H13X          -16.9086382686      -18.7508670561        3.8709215073  MEMB      28              0.0000000000
      3742        28  POPC      H13Y          -16.0193351280      -17.7539165766        2.6399030647  MEMB      28              0.0000000000
      3743        28  POPC      C314          -17.9095606927      -18.7276913224        1.9248707551  MEMB      28              0.0000000000
      3744        28  POPC      H14X          -17.6704055111      -19.8125626396        1.9382883042  MEMB      28              0.0000000000
      3745        28  POPC      H14Y          -17.8967457725      -18.3354861721        0.8854807289  MEMB      28              0.0000000000
      3746        28  POPC      C315          -19.3884716692      -18.5510836337        2.3643417297  MEMB      28              0.0000000000
      3747        28  POPC      H15X          -19.6329803000      -17.4971961222        2.1116411736  MEMB      28              0.0000000000
      3748        28  POPC      H15Y          -19.3906672104      -18.8779825244        3.4261581957  MEMB      28              0.0000000000
      3749        28  POPC      C316          -20.2517361355      -19.3831870495        1.5109365632  MEMB      28              0.0000000000
      3750        28  POPC      H16X          -19.9592057510      -20.4549066586        1.5237484094  MEMB      28              0.0000000000
      3751        28  POPC      H16Y          -20.5806269292      -18.9378664501        0.5476911178  MEMB      28              0.0000000000
      3752        28  POPC      H16Z          -21.2354730786      -19.4093188768        2.0265917653  MEMB      28              0.0000000000
      3753        29  POPC      N              13.4065190451       21.5769406144       20.5436080895  MEMB      29              0.0000000000
      3754        29  POPC      C12            14.5044021803       20.5413572760       20.5928547072  MEMB      29              0.0000000000
      3755        29  POPC      H12A           14.0647722984       19.6641441070       21.0441003260  MEMB      29              0.0000000000
      3756        29  POPC      H12B           15.1970485337       20.9958518017       21.2857296831  MEMB      29              0.0000000000
      3757        29  POPC      C13            12.6087594951       21.5429512051       21.8029553459  MEMB      29              0.0000000000
      3758        29  POPC      H13A           13.1982769893       21.6786195835       22.6976414386  MEMB      29              0.0000000000
      3759        29  POPC      H13B           11.8465344476       22.2985239733       21.6824448503  MEMB      29              0.0000000000
      3760        29  POPC      H13C           12.1049639149       20.5910477239       21.8833905955  MEMB      29              0.0000000000
      3761        29  POPC      C14            14.0333698541       22.9361977213       20.1866795325  MEMB      29              0.0000000000
      3762        29  POPC      H14A           14.3389776135       22.9808997466       19.1517855131  MEMB      29              0.0000000000
      3763        29  POPC      H14B           13.1832822837       23.6022756318       20.1771232649  MEMB      29              0.0000000000
      3764        29  POPC      H14C           14.7691157414       23.1754623595       20.9402248394  MEMB      29              0.0000000000
      3765        29  POPC      C15            12.4045485174       21.0802916191       19.4579198544  MEMB      29              0.0000000000
      3766        29  POPC      H15A           11.7424801237       20.3312261625       19.8665356612  MEMB      29              0.0000000000
      3767        29  POPC      H15B           12.9250299486       20.4865782532       18.7210322920  MEMB      29              0.0000000000
      3768        29  POPC      H15C           11.8884286768       21.9210449295       19.0184267755  MEMB      29              0.0000000000
      3769        29  POPC      C11            15.1466867445       20.1524382113       19.1877055172  MEMB      29              0.0000000000
      3770        29  POPC      H11A           14.4504663094       19.6735546655       18.4664089290  MEMB      29              0.0000000000
      3771        29  POPC      H11B           15.8471231974       19.3278691285       19.4402834943  MEMB      29              0.0000000000
      3772        29  POPC      P              16.9569881059       20.9780884883       17.4373966892  MEMB      29              0.0000000000
      3773        29  POPC      O13            16.6548000139       19.6535988698       16.9119101083  MEMB      29              0.0000000000
      3774        29  POPC      O14            18.3265280510       21.2655858953       17.9219119126  MEMB      29              0.0000000000
      3775        29  POPC      O12            15.9491367599       21.2348671880       18.6125046084  MEMB      29              0.0000000000
      3776        29  POPC      O11            16.4859660366       22.0907339093       16.3445536397  MEMB      29              0.0000000000
      3777        29  POPC      C1             15.3000783352       22.8028103813       16.4720794585  MEMB      29              0.0000000000
      3778        29  POPC      HA             15.3979551937       23.5830728818       15.6872663165  MEMB      29              0.0000000000
      3779        29  POPC      HB             15.2519154122       23.3054969390       17.4616790879  MEMB      29              0.0000000000
      3780        29  POPC      C2             14.0074815969       21.9796512370       16.0965868702  MEMB      29              0.0000000000
      3781        29  POPC      HS             14.0262585031       21.1193578044       16.7993410962  MEMB      29              0.0000000000
      3782        29  POPC      O21            14.3016429666       21.5567671068       14.7130465169  MEMB      29              0.0000000000
      3783        29  POPC      C21            13.8613948610       20.4294495035       14.2322963839  MEMB      29              0.0000000000
      3784        29  POPC      O22            13.1341286579       19.6073765617       14.7422789004  MEMB      29              0.0000000000
      3785        29  POPC      C22            14.2910646007       20.2642280238       12.7709869521  MEMB      29              0.0000000000
      3786        29  POPC      H2R            15.3925700911       20.1277055619       12.8196501907  MEMB      29              0.0000000000
      3787        29  POPC      H2S            14.1274495334       21.1887293737       12.1769761391  MEMB      29              0.0000000000
      3788        29  POPC      C3             12.6427392641       22.8378736874       16.0888956422  MEMB      29              0.0000000000
      3789        29  POPC      HX             12.4075480852       23.1287488606       17.1350303246  MEMB      29              0.0000000000
      3790        29  POPC      HY             11.8219258521       22.2318577279       15.6492016690  MEMB      29              0.0000000000
      3791        29  POPC      O31            12.8463819661       24.0476796151       15.3199335057  MEMB      29              0.0000000000
      3792        29  POPC      C31            12.6114023751       23.9601188192       13.9913701811  MEMB      29              0.0000000000
      3793        29  POPC      O32            12.1552797571       22.9835814101       13.3980470009  MEMB      29              0.0000000000
      3794        29  POPC      C32            13.0696235922       25.2171318547       13.2620376824  MEMB      29              0.0000000000
      3795        29  POPC      H2X            13.4023423087       25.8096291292       14.1409949350  MEMB      29              0.0000000000
      3796        29  POPC      H2Y            12.1841195085       25.6092393770       12.7175606766  MEMB      29              0.0000000000
      3797        29  POPC      C23            13.6731025424       19.0250321251       12.1117645872  MEMB      29              0.0000000000
      3798        29  POPC      H3R            12.5781920154       19.1846170941       12.2118863327  MEMB      29              0.0000000000
      3799        29  POPC      H3S            13.9215936838       18.0810817773       12.6423596141  MEMB      29              0.0000000000
      3800        29  POPC      C24            14.0567969018       18.7489466548       10.6879289499  MEMB      29              0.0000000000
      3801        29  POPC      H4R            13.8844452141       19.6806114200       10.1077428164  MEMB      29              0.0000000000
      3802        29  POPC      H4S            13.2618870425       18.0501581670       10.3500912835  MEMB      29              0.0000000000
      3803        29  POPC      C25            15.5283789103       18.3123580613       10.4181455039  MEMB      29              0.0000000000
      3804        29  POPC      H5R            15.6128647328       17.2589275375       10.7608805599  MEMB      29              0.0000000000
      3805        29  POPC      H5S            16.1967877680       19.0559990998       10.9024476896  MEMB      29              0.0000000000
      3806        29  POPC      C26            15.9165450496       18.2213530372        8.8633127456  MEMB      29              0.0000000000
      3807        29  POPC      H6R            16.9908567383       17.9423054423        8.8152732949  MEMB      29              0.0000000000
      3808        29  POPC      H6S            15.6969664065       19.2174610329        8.4229997710  MEMB      29              0.0000000000
      3809        29  POPC      C27            15.0464924775       17.2125214684        8.0195922227  MEMB      29              0.0000000000
      3810        29  POPC      H7R            13.9975327004       17.5776211814        8.0461717685  MEMB      29              0.0000000000
      3811        29  POPC      H7S            15.2333527597       16.2151558484        8.4719931032  MEMB      29              0.0000000000
      3812        29  POPC      C28            15.5033933963       17.1632973402        6.5691333141  MEMB      29              0.0000000000
      3813        29  POPC      H8R            14.8555229640       16.3683988524        6.1416742246  MEMB      29              0.0000000000
      3814        29  POPC      H8S            16.5557348772       16.8212899710        6.4694872644  MEMB      29              0.0000000000
      3815        29  POPC      C29            15.3511812111       18.4329455264        5.7180540631  MEMB      29              0.0000000000
      3816        29  POPC      H91            14.5222514113       19.1138491398        5.9614584347  MEMB      29              0.0000000000
      3817        29  POPC      C210           16.2299159096       18.8786722161        4.7535054173  MEMB      29              0.0000000000
      3818        29  POPC      H101           15.9872419706       19.8083010075        4.2178746650  MEMB      29              0.0000000000
      3819        29  POPC      C211           17.4846997969       18.1143477316        4.3656269909  MEMB      29              0.0000000000
      3820        29  POPC      H11R           18.2073708237       18.0729400523        5.2084513751  MEMB      29              0.0000000000
      3821        29  POPC      H11S           18.1470640905       18.5665388560        3.5967851164  MEMB      29              0.0000000000
      3822        29  POPC      C212           17.1809375174       16.5639974267        3.9332869472  MEMB      29              0.0000000000
      3823        29  POPC      H12R           16.9603824636       15.9051350256        4.8002224885  MEMB      29              0.0000000000
      3824        29  POPC      H12S           18.1844352551       16.2582943971        3.5674199051  MEMB      29              0.0000000000
      3825        29  POPC      C213           16.2387702939       16.4165563833        2.7256918488  MEMB      29              0.0000000000
      3826        29  POPC      H13R           15.2215035949       16.7701997782        2.9985024429  MEMB      29              0.0000000000
      3827        29  POPC      H13S           16.3030923676       15.3292704880        2.5066190731  MEMB      29              0.0000000000
      3828        29  POPC      C214           16.5481821186       17.1211573580        1.3724219921  MEMB      29              0.0000000000
      3829        29  POPC      H14R           17.5827075278       16.8785093309        1.0480766647  MEMB      29              0.0000000000
      3830        29  POPC      H14S           16.6229113600       18.2200905780        1.5176194097  MEMB      29              0.0000000000
      3831        29  POPC      C215           15.5817319507       16.7564030045        0.2730140610  MEMB      29              0.0000000000
      3832        29  POPC      H15R           15.7169230081       17.4440379148       -0.5890779081  MEMB      29              0.0000000000
      3833        29  POPC      H15S           14.5432540200       16.9567072963        0.6132535899  MEMB      29              0.0000000000
      3834        29  POPC      C216           15.4345082073       15.2722973215       -0.2078192273  MEMB      29              0.0000000000
      3835        29  POPC      H16R           15.2651411858       14.6910403996        0.7237266567  MEMB      29              0.0000000000
      3836        29  POPC      H16S           16.4278513658       14.9748945683       -0.6067446195  MEMB      29              0.0000000000
      3837        29  POPC      C217           14.3663508300       15.0469046993       -1.3232150541  MEMB      29              0.0000000000
      3838        29  POPC      H17R           13.3590179188       15.2403727989       -0.8963995517  MEMB      29              0.0000000000
      3839        29  POPC      H17S           14.3651200690       13.9591981012       -1.5495181411  MEMB      29              0.0000000000
      3840        29  POPC      C218           14.6332785889       15.7870191183       -2.6604052272  MEMB      29              0.0000000000
      3841        29  POPC      H18R           14.1917030857       16.8064726394       -2.6535931324  MEMB      29              0.0000000000
      3842        29  POPC      H18S           14.1207014621       15.2175526577       -3.4649507242  MEMB      29              0.0000000000
      3843        29  POPC      H18T           15.7005082690       15.9246746981       -2.9367982365  MEMB      29              0.0000000000
      3844        29  POPC      C33            14.1672493184       24.9490473405       12.1767988962  MEMB      29              0.0000000000
      3845        29  POPC      H3X            14.4137440906       25.9008001399       11.6593741078  MEMB      29              0.0000000000
      3846        29  POPC      H3Y            13.8121184408       24.3329565739       11.3231973309  MEMB      29              0.0000000000
      3847        29  POPC      C34            15.4486588984       24.3238907753       12.6897715035  MEMB      29              0.0000000000
      3848        29  POPC      H4X            15.1954531316       23.2776322199       12.9646373647  MEMB      29              0.0000000000
      3849        29  POPC      H4Y            15.8351016411       24.8729295111       13.5749495427  MEMB      29              0.0000000000
      3850        29  POPC      C35            16.6753845439       24.2654956496       11.7306202566  MEMB      29              0.0000000000
      3851        29  POPC      H5X            17.5259508959       23.7424254495       12.2177090666  MEMB      29              0.0000000000
      3852        29  POPC      H5Y            16.9169245158       25.2681831316       11.3175856566  MEMB      29              0.0000000000
      3853        29  POPC      C36            16.3503789362       23.5481911893       10.4304077402  MEMB      29              0.0000000000
      3854        29  POPC      H6X            15.4697035921       23.9248497525        9.8675045248  MEMB      29              0.0000000000
      3855        29  POPC      H6Y            16.2908281236       22.4669966411       10.6789898002  MEMB      29              0.0000000000
      3856        29  POPC      C37            17.4640732160       23.6659204223        9.3950013022  MEMB      29              0.0000000000
      3857        29  POPC      H7X            18.4206649312       23.8697533707        9.9219790263  MEMB      29              0.0000000000
      3858        29  POPC      H7Y            17.1488606366       24.5703817417        8.8320522689  MEMB      29              0.0000000000
      3859        29  POPC      C38            17.7285465546       22.4649068267        8.4575346924  MEMB      29              0.0000000000
      3860        29  POPC      H8X            18.1140518187       21.6039790315        9.0444843178  MEMB      29              0.0000000000
      3861        29  POPC      H8Y            18.4807914599       22.7146436064        7.6790229546  MEMB      29              0.0000000000
      3862        29  POPC      C39            16.5070061915       21.7784463194        7.8050666630  MEMB      29              0.0000000000
      3863        29  POPC      H9X            15.9055967743       21.3798675858        8.6499117903  MEMB      29              0.0000000000
      3864        29  POPC      H9Y            16.8875690219       20.8967345459        7.2464277603  MEMB      29              0.0000000000
      3865        29  POPC      C310           15.7150557148       22.7928801203        6.9051679569  MEMB      29              0.0000000000
      3866        29  POPC      H10X           16.3731442008       23.0765609143        6.0561891932  MEMB      29              0.0000000000
      3867        29  POPC      H10Y           15.5908813483       23.7706231706        7.4179258468  MEMB      29              0.0000000000
      3868        29  POPC      C311           14.3626957547       22.1715995824        6.5846830626  MEMB      29              0.0000000000
      3869        29  POPC      H11X           13.9130011924       21.8753472545        7.5564500943  MEMB      29              0.0000000000
      3870        29  POPC      H11Y           14.4108284170       21.2315460041        5.9945101529  MEMB      29              0.0000000000
      3871        29  POPC      C312           13.4841240414       23.0586360512        5.8123366133  MEMB      29              0.0000000000
      3872        29  POPC      H12X           14.0673538736       23.9150243148        5.4113837765  MEMB      29              0.0000000000
      3873        29  POPC      H12Y           12.7692710408       23.4325744456        6.5761927349  MEMB      29              0.0000000000
      3874        29  POPC      C313           12.6817903712       22.4134877969        4.6446973786  MEMB      29              0.0000000000
      3875        29  POPC      H13X           11.7844989996       23.0557857290        4.5156917137  MEMB      29              0.0000000000
      3876        29  POPC      H13Y           12.2785637916       21.4147174461        4.9170699690  MEMB      29              0.0000000000
      3877        29  POPC      C314           13.4606860599       22.2511704624        3.2395690819  MEMB      29              0.0000000000
      3878        29  POPC      H14X           12.8841787411       21.5620338601        2.5860784837  MEMB      29              0.0000000000
      3879        29  POPC      H14Y           14.4262949832       21.7751022390        3.5139407754  MEMB      29              0.0000000000
      3880        29  POPC      C315           13.9247873263       23.5087656060        2.5133997264  MEMB      29              0.0000000000
      3881        29  POPC      H15X           14.5470823379       23.2426922099        1.6323339981  MEMB      29              0.0000000000
      3882        29  POPC      H15Y           14.4821710320       24.0468853602        3.3096850195  MEMB      29              0.0000000000
      3883        29  POPC      C316           12.8602681858       24.4384528776        1.9993884219  MEMB      29              0.0000000000
      3884        29  POPC      H16X           13.4100586047       25.3718110735        1.7526225058  MEMB      29              0.0000000000
      3885        29  POPC      H16Y           12.1876489764       24.6045186525        2.8679082216  MEMB      29              0.0000000000
      3886        29  POPC      H16Z           12.4016727763       23.9401985002        1.1186194740  MEMB      29              0.0000000000
      3887        30  POPC      N             -21.3269369409      -14.2092283572       20.6752531075  MEMB      30              0.0000000000
      3888        30  POPC      C12           -22.3283242132      -13.9611253041       19.5497868845  MEMB      30              0.0000000000
      3889        30  POPC      H12A          -22.5481514747      -12.9052220146       19.6058587652  MEMB      30              0.0000000000
      3890        30  POPC      H12B          -23.2696568826      -14.4338235872       19.7882174680  MEMB      30              0.0000000000
      3891        30  POPC      C13           -20.0571060298      -13.3598356452       20.4916773606  MEMB      30              0.0000000000
      3892        30  POPC      H13A          -19.6276018839      -13.6130233222       19.5336468568  MEMB      30              0.0000000000
      3893        30  POPC      H13B          -20.3782868965      -12.3298371133       20.5401109192  MEMB      30              0.0000000000
      3894        30  POPC      H13C          -19.3130050567      -13.5919468208       21.2392321142  MEMB      30              0.0000000000
      3895        30  POPC      C14           -22.0162961912      -13.8480535120       21.9591253894  MEMB      30              0.0000000000
      3896        30  POPC      H14A          -22.9740846544      -14.3273732969       22.0980278420  MEMB      30              0.0000000000
      3897        30  POPC      H14B          -21.3853283418      -14.0787761025       22.8047300081  MEMB      30              0.0000000000
      3898        30  POPC      H14C          -22.2256997147      -12.7975262508       21.8214934171  MEMB      30              0.0000000000
      3899        30  POPC      C15           -20.9594811019      -15.6139228646       20.8633245890  MEMB      30              0.0000000000
      3900        30  POPC      H15A          -21.7826074214      -16.2644888319       21.1195021828  MEMB      30              0.0000000000
      3901        30  POPC      H15B          -20.1603688993      -15.7926429419       21.5675112073  MEMB      30              0.0000000000
      3902        30  POPC      H15C          -20.6460114993      -15.8736237419       19.8629783517  MEMB      30              0.0000000000
      3903        30  POPC      C11           -21.9898533814      -13.9611728409       18.0328182851  MEMB      30              0.0000000000
      3904        30  POPC      H11A          -21.3693029653      -13.0610181553       17.8354356561  MEMB      30              0.0000000000
      3905        30  POPC      H11B          -22.9900899596      -13.9582956025       17.5492488225  MEMB      30              0.0000000000
      3906        30  POPC      P             -21.8960889576      -16.4467643948       17.5535421870  MEMB      30              0.0000000000
      3907        30  POPC      O13           -23.2124802238      -16.4188477274       18.1561438983  MEMB      30              0.0000000000
      3908        30  POPC      O14           -20.9084710015      -17.3744855487       18.0831325511  MEMB      30              0.0000000000
      3909        30  POPC      O12           -21.1533731259      -15.0540934705       17.6647577408  MEMB      30              0.0000000000
      3910        30  POPC      O11           -21.9331448538      -16.7788243770       15.9704380084  MEMB      30              0.0000000000
      3911        30  POPC      C1            -20.7726929105      -16.3756178341       15.1975426255  MEMB      30              0.0000000000
      3912        30  POPC      HA            -19.8721910245      -16.7005557731       15.7613091017  MEMB      30              0.0000000000
      3913        30  POPC      HB            -20.7939839834      -15.2702271933       15.0880926191  MEMB      30              0.0000000000
      3914        30  POPC      C2            -20.9410855145      -16.9111409794       13.8138961775  MEMB      30              0.0000000000
      3915        30  POPC      HS            -20.2527025207      -16.3626958089       13.1359151666  MEMB      30              0.0000000000
      3916        30  POPC      O21           -22.3321362333      -16.7365496858       13.4144952321  MEMB      30              0.0000000000
      3917        30  POPC      C21           -22.6721739771      -15.6035196455       12.9178836310  MEMB      30              0.0000000000
      3918        30  POPC      O22           -22.0018258706      -14.6459445951       12.6426704789  MEMB      30              0.0000000000
      3919        30  POPC      C22           -24.2518214866      -15.5971349200       12.8107858435  MEMB      30              0.0000000000
      3920        30  POPC      H2R           -24.6332430331      -14.7945522134       13.4776441918  MEMB      30              0.0000000000
      3921        30  POPC      H2S           -24.6651986076      -16.5170643492       13.2768012955  MEMB      30              0.0000000000
      3922        30  POPC      C3            -20.6827047182      -18.4473253947       13.6967858777  MEMB      30              0.0000000000
      3923        30  POPC      HX            -21.3465410760      -18.8913344630       14.4691188130  MEMB      30              0.0000000000
      3924        30  POPC      HY            -19.6017635607      -18.5885741410       13.9111121308  MEMB      30              0.0000000000
      3925        30  POPC      O31           -21.1158966673      -18.9071347134       12.4456718516  MEMB      30              0.0000000000
      3926        30  POPC      C31           -20.3049257810      -18.5854631719       11.4487783750  MEMB      30              0.0000000000
      3927        30  POPC      O32           -19.1570169611      -18.1576801588       11.5947056932  MEMB      30              0.0000000000
      3928        30  POPC      C32           -21.1321192094      -18.5637433656       10.1776375727  MEMB      30              0.0000000000
      3929        30  POPC      H2X           -21.7624940710      -17.6489950715       10.1640686859  MEMB      30              0.0000000000
      3930        30  POPC      H2Y           -21.7643437421      -19.4738033486       10.2576621147  MEMB      30              0.0000000000
      3931        30  POPC      C23           -24.7438533929      -15.2613589175       11.4369585888  MEMB      30              0.0000000000
      3932        30  POPC      H3R           -24.0457333562      -14.5059335573       11.0170989859  MEMB      30              0.0000000000
      3933        30  POPC      H3S           -25.8093078061      -14.9471732041       11.4573316591  MEMB      30              0.0000000000
      3934        30  POPC      C24           -24.8314135487      -16.4687575407       10.4723473170  MEMB      30              0.0000000000
      3935        30  POPC      H4R           -25.4397793155      -17.2341154082       11.0000210090  MEMB      30              0.0000000000
      3936        30  POPC      H4S           -23.7994248160      -16.8526753085       10.3242676881  MEMB      30              0.0000000000
      3937        30  POPC      C25           -25.4306910765      -16.2316282826        9.0982049016  MEMB      30              0.0000000000
      3938        30  POPC      H5R           -24.8431903185      -15.4680083390        8.5449885632  MEMB      30              0.0000000000
      3939        30  POPC      H5S           -26.4923482494      -15.9095544095        9.1571456132  MEMB      30              0.0000000000
      3940        30  POPC      C26           -25.5685740012      -17.5102003754        8.2279670364  MEMB      30              0.0000000000
      3941        30  POPC      H6R           -26.1050326255      -18.2427258245        8.8682324218  MEMB      30              0.0000000000
      3942        30  POPC      H6S           -24.4936457654      -17.7664860794        8.1132158022  MEMB      30              0.0000000000
      3943        30  POPC      C27           -26.0766476458      -17.3496834010        6.7795112596  MEMB      30              0.0000000000
      3944        30  POPC      H7R           -25.8499081577      -16.2984126711        6.5006921559  MEMB      30              0.0000000000
      3945        30  POPC      H7S           -27.1708904791      -17.4452768465        6.6127324158  MEMB      30              0.0000000000
      3946        30  POPC      C28           -25.2896691032      -18.2026620962        5.7499247408  MEMB      30              0.0000000000
      3947        30  POPC      H8R           -24.2292754857      -17.8745733712        5.7973007338  MEMB      30              0.0000000000
      3948        30  POPC      H8S           -25.4841601860      -17.9284909815        4.6909990509  MEMB      30              0.0000000000
      3949        30  POPC      C29           -25.3138501622      -19.7000124625        5.8521735257  MEMB      30              0.0000000000
      3950        30  POPC      H91           -26.2904142321      -20.0892016359        5.5283619907  MEMB      30              0.0000000000
      3951        30  POPC      C210          -24.2742062542      -20.4939795482        6.2068065393  MEMB      30              0.0000000000
      3952        30  POPC      H101          -24.3392897188      -21.5911480307        6.2513602976  MEMB      30              0.0000000000
      3953        30  POPC      C211          -22.8478023820      -20.0674020194        6.6069428078  MEMB      30              0.0000000000
      3954        30  POPC      H11R          -22.5189878477      -20.6384672641        7.5014181420  MEMB      30              0.0000000000
      3955        30  POPC      H11S          -22.7572617222      -18.9999253032        6.9012498866  MEMB      30              0.0000000000
      3956        30  POPC      C212          -21.9168954726      -20.3072074200        5.3839952784  MEMB      30              0.0000000000
      3957        30  POPC      H12R          -22.5115806057      -20.0307904003        4.4871878233  MEMB      30              0.0000000000
      3958        30  POPC      H12S          -21.6197247077      -21.3688378900        5.2463322876  MEMB      30              0.0000000000
      3959        30  POPC      C213          -20.7246290892      -19.3241379454        5.2069593491  MEMB      30              0.0000000000
      3960        30  POPC      H13R          -19.9255413684      -19.6693414562        5.8973321968  MEMB      30              0.0000000000
      3961        30  POPC      H13S          -21.0292211902      -18.3039315208        5.5243291577  MEMB      30              0.0000000000
      3962        30  POPC      C214          -20.3116719431      -19.2376483814        3.7697757809  MEMB      30              0.0000000000
      3963        30  POPC      H14R          -21.2091918833      -18.9284321006        3.1925720328  MEMB      30              0.0000000000
      3964        30  POPC      H14S          -20.1455246901      -20.2580280534        3.3629083107  MEMB      30              0.0000000000
      3965        30  POPC      C215          -19.0762121828      -18.2457779118        3.4210009034  MEMB      30              0.0000000000
      3966        30  POPC      H15R          -18.2490223778      -18.6772933247        4.0242192011  MEMB      30              0.0000000000
      3967        30  POPC      H15S          -19.4672890052      -17.2463888114        3.7084053912  MEMB      30              0.0000000000
      3968        30  POPC      C216          -18.7878267972      -18.2042230857        1.8779560181  MEMB      30              0.0000000000
      3969        30  POPC      H16R          -18.7567534145      -17.1439099676        1.5476660012  MEMB      30              0.0000000000
      3970        30  POPC      H16S          -19.6251307750      -18.6748607097        1.3196160859  MEMB      30              0.0000000000
      3971        30  POPC      C217          -17.4902148029      -18.9516851642        1.4705011500  MEMB      30              0.0000000000
      3972        30  POPC      H17R          -17.4402215313      -18.9114268126        0.3613579085  MEMB      30              0.0000000000
      3973        30  POPC      H17S          -17.4928925004      -20.0461901360        1.6612178471  MEMB      30              0.0000000000
      3974        30  POPC      C218          -16.1831334894      -18.3094913119        1.8856236887  MEMB      30              0.0000000000
      3975        30  POPC      H18R          -16.1250490658      -17.2447968500        1.5735766127  MEMB      30              0.0000000000
      3976        30  POPC      H18S          -15.3441903314      -18.8519587806        1.3995943317  MEMB      30              0.0000000000
      3977        30  POPC      H18T          -16.0056117915      -18.3880797742        2.9795297466  MEMB      30              0.0000000000
      3978        30  POPC      C33           -20.2861125129      -18.4459356367        8.8434056260  MEMB      30              0.0000000000
      3979        30  POPC      H3X           -21.1347741694      -18.5474405503        8.1336231896  MEMB      30              0.0000000000
      3980        30  POPC      H3Y           -19.5993336651      -19.2956042823        8.6416162890  MEMB      30              0.0000000000
      3981        30  POPC      C34           -19.4594515458      -17.1038612171        8.4814327358  MEMB      30              0.0000000000
      3982        30  POPC      H4X           -18.8908571713      -17.3348838827        7.5553383634  MEMB      30              0.0000000000
      3983        30  POPC      H4Y           -18.7788289010      -16.9019749421        9.3360178315  MEMB      30              0.0000000000
      3984        30  POPC      C35           -20.3618687087      -15.8616727657        8.3753568427  MEMB      30              0.0000000000
      3985        30  POPC      H5X           -20.7645954183      -15.8025481916        9.4091058522  MEMB      30              0.0000000000
      3986        30  POPC      H5Y           -21.1129645823      -16.0637312359        7.5820420035  MEMB      30              0.0000000000
      3987        30  POPC      C36           -19.6295271371      -14.5696216328        8.0984488409  MEMB      30              0.0000000000
      3988        30  POPC      H6X           -19.2084630491      -14.6073349064        7.0710230979  MEMB      30              0.0000000000
      3989        30  POPC      H6Y           -18.8371733928      -14.5014614248        8.8742394026  MEMB      30              0.0000000000
      3990        30  POPC      C37           -20.5713387270      -13.3981947189        8.0251108826  MEMB      30              0.0000000000
      3991        30  POPC      H7X           -20.1645336286      -12.5189874060        8.5690090168  MEMB      30              0.0000000000
      3992        30  POPC      H7Y           -21.4460032689      -13.6831715487        8.6480641918  MEMB      30              0.0000000000
      3993        30  POPC      C38           -20.9336700549      -12.9504071383        6.6018821396  MEMB      30              0.0000000000
      3994        30  POPC      H8X           -20.9984161277      -13.7502859214        5.8335576024  MEMB      30              0.0000000000
      3995        30  POPC      H8Y           -20.0515393989      -12.4475645049        6.1509761138  MEMB      30              0.0000000000
      3996        30  POPC      C39           -22.0099552376      -11.9192670587        6.4383489755  MEMB      30              0.0000000000
      3997        30  POPC      H9X           -21.9340945422      -11.7493482196        5.3430430881  MEMB      30              0.0000000000
      3998        30  POPC      H9Y           -21.7048178388      -10.9878993091        6.9615749523  MEMB      30              0.0000000000
      3999        30  POPC      C310          -23.4784084514      -12.3022746152        6.8099664739  MEMB      30              0.0000000000
      4000        30  POPC      H10X          -24.1724862791      -11.4454826581        6.6740095463  MEMB      30              0.0000000000
      4001        30  POPC      H10Y          -23.4223149350      -12.5711783073        7.8864724061  MEMB      30              0.0000000000
      4002        30  POPC      C311          -23.9480110942      -13.5839355680        6.0557647485  MEMB      30              0.0000000000
      4003        30  POPC      H11X          -25.0395889401      -13.6909362459        6.2327660702  MEMB      30              0.0000000000
      4004        30  POPC      H11Y          -23.3450515696      -14.4477910334        6.4086315988  MEMB      30              0.0000000000
      4005        30  POPC      C312          -23.8948092403      -13.4923396459        4.5267650462  MEMB      30              0.0000000000
      4006        30  POPC      H12X          -22.8659233053      -13.2990884177        4.1547857521  MEMB      30              0.0000000000
      4007        30  POPC      H12Y          -24.4498817245      -12.6012506012        4.1632057087  MEMB      30              0.0000000000
      4008        30  POPC      C313          -24.4942190454      -14.6990023816        3.7645805873  MEMB      30              0.0000000000
      4009        30  POPC      H13X          -25.1093511776      -14.2923119821        2.9335953099  MEMB      30              0.0000000000
      4010        30  POPC      H13Y          -25.2255523411      -15.2019075064        4.4328319595  MEMB      30              0.0000000000
      4011        30  POPC      C314          -23.4390409846      -15.7246084244        3.1827517636  MEMB      30              0.0000000000
      4012        30  POPC      H14X          -24.0508933733      -16.6338627907        3.0005034830  MEMB      30              0.0000000000
      4013        30  POPC      H14Y          -22.5953829377      -15.9613063192        3.8657865237  MEMB      30              0.0000000000
      4014        30  POPC      C315          -22.8767191888      -15.2753757078        1.8186255723  MEMB      30              0.0000000000
      4015        30  POPC      H15X          -22.6752842349      -14.1842986518        1.7612149194  MEMB      30              0.0000000000
      4016        30  POPC      H15Y          -23.6405280043      -15.5929823052        1.0769772009  MEMB      30              0.0000000000
      4017        30  POPC      C316          -21.4914877221      -15.8385997101        1.4145855968  MEMB      30              0.0000000000
      4018        30  POPC      H16X          -20.9491288465      -15.9136271109        2.3813009014  MEMB      30              0.0000000000
      4019        30  POPC      H16Y          -21.0504847986      -15.3840667087        0.5017661402  MEMB      30              0.0000000000
      4020        30  POPC      H16Z          -21.5355572216      -16.9242440829        1.1827332707  MEMB      30              0.0000000000
      4021        31  POPC      N              20.9629730123       15.0880893074       20.2728667995  MEMB      31              0.0000000000
      4022        31  POPC      C12            21.9689580659       14.5721447111       19.1815575522  MEMB      31              0.0000000000
      4023        31  POPC      H12A           21.4667382721       14.7662766450       18.2453480980  MEMB      31              0.0000000000
      4024        31  POPC      H12B           21.9389461981       13.5004589447       19.3118995520  MEMB      31              0.0000000000
      4025        31  POPC      C13            20.4817001409       16.4890446816       19.8607864212  MEMB      31              0.0000000000
      4026        31  POPC      H13A           19.8057205476       16.5048460904       19.0186452079  MEMB      31              0.0000000000
      4027        31  POPC      H13B           19.9947676335       17.0152707571       20.6684886348  MEMB      31              0.0000000000
      4028        31  POPC      H13C           21.4169246127       17.0146891356       19.7364750938  MEMB      31              0.0000000000
      4029        31  POPC      C14            19.7695070288       14.1742815158       20.3602946879  MEMB      31              0.0000000000
      4030        31  POPC      H14A           19.0339494326       14.5688668365       21.0456103298  MEMB      31              0.0000000000
      4031        31  POPC      H14B           19.4384311502       13.8975199557       19.3702482805  MEMB      31              0.0000000000
      4032        31  POPC      H14C           20.0299477608       13.2493187551       20.8532597078  MEMB      31              0.0000000000
      4033        31  POPC      C15            21.5359615918       15.2524001589       21.6136958925  MEMB      31              0.0000000000
      4034        31  POPC      H15A           22.5432573694       15.6385381848       21.6651992205  MEMB      31              0.0000000000
      4035        31  POPC      H15B           21.5468592942       14.2738229934       22.0704981886  MEMB      31              0.0000000000
      4036        31  POPC      H15C           20.8708472483       15.8214145280       22.2463456681  MEMB      31              0.0000000000
      4037        31  POPC      C11            23.4745520056       14.8903632254       19.0743102958  MEMB      31              0.0000000000
      4038        31  POPC      H11A           24.0178346856       14.3542709110       18.2669875827  MEMB      31              0.0000000000
      4039        31  POPC      H11B           24.0335405052       14.5623437640       19.9766716607  MEMB      31              0.0000000000
      4040        31  POPC      P              23.7689029254       17.1333795399       17.7249540654  MEMB      31              0.0000000000
      4041        31  POPC      O13            24.7649633597       16.3869782188       16.8794393755  MEMB      31              0.0000000000
      4042        31  POPC      O14            24.0495177769       18.5466296260       17.9555643486  MEMB      31              0.0000000000
      4043        31  POPC      O12            23.5537080547       16.3848594817       19.0126577013  MEMB      31              0.0000000000
      4044        31  POPC      O11            22.3288384384       17.0178986299       17.0638728597  MEMB      31              0.0000000000
      4045        31  POPC      C1             22.1031174729       17.5589222726       15.7746900799  MEMB      31              0.0000000000
      4046        31  POPC      HA             22.7233154920       16.9982810068       15.0430093937  MEMB      31              0.0000000000
      4047        31  POPC      HB             22.4680721325       18.6078945540       15.7466505414  MEMB      31              0.0000000000
      4048        31  POPC      C2             20.5995514180       17.3454577029       15.1840767763  MEMB      31              0.0000000000
      4049        31  POPC      HS             19.8696931585       17.9093091614       15.8035115834  MEMB      31              0.0000000000
      4050        31  POPC      O21            20.2638893887       15.9057276377       15.1784634953  MEMB      31              0.0000000000
      4051        31  POPC      C21            19.0269891549       15.5309904335       15.1202194353  MEMB      31              0.0000000000
      4052        31  POPC      O22            18.0810876720       16.2507855084       15.2529074541  MEMB      31              0.0000000000
      4053        31  POPC      C22            19.0297569264       14.0696006453       14.7417460732  MEMB      31              0.0000000000
      4054        31  POPC      H2R            18.0850147888       13.6078396206       15.1002985019  MEMB      31              0.0000000000
      4055        31  POPC      H2S            19.8853561651       13.4675573011       15.1156646030  MEMB      31              0.0000000000
      4056        31  POPC      C3             20.4990327943       17.9371940925       13.7661201293  MEMB      31              0.0000000000
      4057        31  POPC      HX             20.6133567837       19.0372256865       13.8718632510  MEMB      31              0.0000000000
      4058        31  POPC      HY             19.5182756777       17.7572764295       13.2761545707  MEMB      31              0.0000000000
      4059        31  POPC      O31            21.5277012589       17.4288855561       12.8885862168  MEMB      31              0.0000000000
      4060        31  POPC      C31            22.2492123226       18.1914330884       12.0652318858  MEMB      31              0.0000000000
      4061        31  POPC      O32            22.0595034607       19.4164634624       11.9411171650  MEMB      31              0.0000000000
      4062        31  POPC      C32            23.5493810452       17.5476644129       11.6752037872  MEMB      31              0.0000000000
      4063        31  POPC      H2X            23.4841887009       16.4536508185       11.4929808313  MEMB      31              0.0000000000
      4064        31  POPC      H2Y            24.3705315273       17.7762625058       12.3877874339  MEMB      31              0.0000000000
      4065        31  POPC      C23            18.9497980434       13.9066239800       13.1577173527  MEMB      31              0.0000000000
      4066        31  POPC      H3R            18.3262271532       14.7000195283       12.6929553242  MEMB      31              0.0000000000
      4067        31  POPC      H3S            18.4378789151       12.9652902928       12.8642032083  MEMB      31              0.0000000000
      4068        31  POPC      C24            20.3126588092       13.8737960987       12.3814543309  MEMB      31              0.0000000000
      4069        31  POPC      H4R            20.8994114059       13.0095128238       12.7596834096  MEMB      31              0.0000000000
      4070        31  POPC      H4S            20.9493542718       14.7370611541       12.6707870784  MEMB      31              0.0000000000
      4071        31  POPC      C25            20.1828173916       13.8253142333       10.7443623527  MEMB      31              0.0000000000
      4072        31  POPC      H5R            19.6783902603       12.9012991674       10.3892981014  MEMB      31              0.0000000000
      4073        31  POPC      H5S            21.2402939350       13.7582835344       10.4103397742  MEMB      31              0.0000000000
      4074        31  POPC      C26            19.5411595253       15.0205387334       10.1456126189  MEMB      31              0.0000000000
      4075        31  POPC      H6R            20.1756039449       15.8863868487       10.4321590669  MEMB      31              0.0000000000
      4076        31  POPC      H6S            18.5127002681       15.0794060366       10.5616983469  MEMB      31              0.0000000000
      4077        31  POPC      C27            19.5301998858       14.9484160018        8.6714152510  MEMB      31              0.0000000000
      4078        31  POPC      H7R            19.1835099709       13.9196981233        8.4350530852  MEMB      31              0.0000000000
      4079        31  POPC      H7S            20.5698369052       15.0576801756        8.2952005572  MEMB      31              0.0000000000
      4080        31  POPC      C28            18.5892604626       15.9574522203        8.0077913798  MEMB      31              0.0000000000
      4081        31  POPC      H8R            17.5948952312       15.9118822259        8.5012303705  MEMB      31              0.0000000000
      4082        31  POPC      H8S            18.3868894599       15.6766290334        6.9520895900  MEMB      31              0.0000000000
      4083        31  POPC      C29            19.1918035525       17.2946723066        8.0761873362  MEMB      31              0.0000000000
      4084        31  POPC      H91            19.4413832102       17.6290084419        9.0939935582  MEMB      31              0.0000000000
      4085        31  POPC      C210           19.5707088914       18.1136377129        7.0757308129  MEMB      31              0.0000000000
      4086        31  POPC      H101           20.0655394131       19.0542137587        7.3593848778  MEMB      31              0.0000000000
      4087        31  POPC      C211           19.4636485199       17.9822820122        5.5602232393  MEMB      31              0.0000000000
      4088        31  POPC      H11R           18.6028894254       17.3329218037        5.2923686160  MEMB      31              0.0000000000
      4089        31  POPC      H11S           20.3459917817       17.4802158933        5.1088681046  MEMB      31              0.0000000000
      4090        31  POPC      C212           19.2107525865       19.3264533675        4.9487721857  MEMB      31              0.0000000000
      4091        31  POPC      H12R           20.1422509929       19.9208119212        5.0643995937  MEMB      31              0.0000000000
      4092        31  POPC      H12S           18.4414931931       19.8381449550        5.5658077526  MEMB      31              0.0000000000
      4093        31  POPC      C213           18.5909156533       19.3129382413        3.5394814643  MEMB      31              0.0000000000
      4094        31  POPC      H13R           18.2953577105       20.3522696323        3.2811072484  MEMB      31              0.0000000000
      4095        31  POPC      H13S           17.6212168005       18.7715153872        3.5100474405  MEMB      31              0.0000000000
      4096        31  POPC      C214           19.4967811991       18.8198314899        2.5100517206  MEMB      31              0.0000000000
      4097        31  POPC      H14R           18.8294058983       19.0157500428        1.6437111148  MEMB      31              0.0000000000
      4098        31  POPC      H14S           19.6516177565       17.7219812099        2.5812668230  MEMB      31              0.0000000000
      4099        31  POPC      C215           20.7567650449       19.6535173412        2.1704373882  MEMB      31              0.0000000000
      4100        31  POPC      H15R           21.5087847379       19.2178669711        2.8625325396  MEMB      31              0.0000000000
      4101        31  POPC      H15S           20.5719336476       20.7235314764        2.4054437886  MEMB      31              0.0000000000
      4102        31  POPC      C216           21.3022326493       19.3053800644        0.7639190981  MEMB      31              0.0000000000
      4103        31  POPC      H16R           20.5704596963       19.5422072490       -0.0377924990  MEMB      31              0.0000000000
      4104        31  POPC      H16S           21.3155986050       18.1952010091        0.7233625884  MEMB      31              0.0000000000
      4105        31  POPC      C217           22.5722883175       20.0936782178        0.3911075941  MEMB      31              0.0000000000
      4106        31  POPC      H17R           23.3688518277       19.6703777563        1.0396615607  MEMB      31              0.0000000000
      4107        31  POPC      H17S           22.5864685068       21.1809599050        0.6190078144  MEMB      31              0.0000000000
      4108        31  POPC      C218           23.0201189855       19.8378905271       -1.0157217797  MEMB      31              0.0000000000
      4109        31  POPC      H18R           23.9612686767       20.4024357806       -1.1884841207  MEMB      31              0.0000000000
      4110        31  POPC      H18S           22.2692482210       20.2774289802       -1.7066057084  MEMB      31              0.0000000000
      4111        31  POPC      H18T           23.1866950352       18.7807827331       -1.3142122880  MEMB      31              0.0000000000
      4112        31  POPC      C33            24.0256729107       18.1637851826       10.2924479136  MEMB      31              0.0000000000
      4113        31  POPC      H3X            25.0297669737       17.7652525592       10.0330489083  MEMB      31              0.0000000000
      4114        31  POPC      H3Y            24.0531062125       19.2594937371       10.4740838097  MEMB      31              0.0000000000
      4115        31  POPC      C34            23.1084250699       17.8552126660        9.1020528549  MEMB      31              0.0000000000
      4116        31  POPC      H4X            22.0728374295       17.9871552068        9.4821456691  MEMB      31              0.0000000000
      4117        31  POPC      H4Y            23.3415922466       16.8470181239        8.6977043098  MEMB      31              0.0000000000
      4118        31  POPC      C35            23.2709654697       18.8585169076        7.9666013160  MEMB      31              0.0000000000
      4119        31  POPC      H5X            22.8177616897       19.7725289101        8.4064982432  MEMB      31              0.0000000000
      4120        31  POPC      H5Y            22.6521903442       18.6811150852        7.0610810652  MEMB      31              0.0000000000
      4121        31  POPC      C36            24.6784630324       19.2465596013        7.5015685852  MEMB      31              0.0000000000
      4122        31  POPC      H6X            25.2138239642       19.4951188524        8.4428065477  MEMB      31              0.0000000000
      4123        31  POPC      H6Y            24.6351013649       20.1775595211        6.8968540634  MEMB      31              0.0000000000
      4124        31  POPC      C37            25.3412375023       18.1957521149        6.5868645515  MEMB      31              0.0000000000
      4125        31  POPC      H7X            24.9456579189       17.2658094760        7.0484319052  MEMB      31              0.0000000000
      4126        31  POPC      H7Y            26.4495456742       18.2578589371        6.5408556834  MEMB      31              0.0000000000
      4127        31  POPC      C38            24.7950627044       18.1349161175        5.2078003918  MEMB      31              0.0000000000
      4128        31  POPC      H8X            24.9360219025       19.1281535238        4.7303796570  MEMB      31              0.0000000000
      4129        31  POPC      H8Y            23.6974082535       17.9639329485        5.1922859767  MEMB      31              0.0000000000
      4130        31  POPC      C39            25.4849875968       17.0244365412        4.4443825497  MEMB      31              0.0000000000
      4131        31  POPC      H9X            25.6656297537       16.1962484551        5.1625708615  MEMB      31              0.0000000000
      4132        31  POPC      H9Y            26.4738295652       17.3493334215        4.0558525347  MEMB      31              0.0000000000
      4133        31  POPC      C310           24.6148159878       16.4058596248        3.3517035582  MEMB      31              0.0000000000
      4134        31  POPC      H10X           24.2575533457       17.3006104452        2.7984359315  MEMB      31              0.0000000000
      4135        31  POPC      H10Y           23.7107599070       15.9575574176        3.8164925760  MEMB      31              0.0000000000
      4136        31  POPC      C311           25.4098844943       15.3512510770        2.5086312210  MEMB      31              0.0000000000
      4137        31  POPC      H11X           25.9595670831       14.6155616780        3.1338758025  MEMB      31              0.0000000000
      4138        31  POPC      H11Y           26.2528325373       15.9363991992        2.0827662790  MEMB      31              0.0000000000
      4139        31  POPC      C312           24.6035362177       14.7274336301        1.3041401593  MEMB      31              0.0000000000
      4140        31  POPC      H12X           25.4196387767       14.3144975150        0.6734423079  MEMB      31              0.0000000000
      4141        31  POPC      H12Y           24.1591857782       15.5753300199        0.7402739724  MEMB      31              0.0000000000
      4142        31  POPC      C313           23.6055203021       13.6748028064        1.7239664637  MEMB      31              0.0000000000
      4143        31  POPC      H13X           23.1209318662       14.1896589814        2.5809484910  MEMB      31              0.0000000000
      4144        31  POPC      H13Y           24.0590323426       12.7423253637        2.1228822070  MEMB      31              0.0000000000
      4145        31  POPC      C314           22.6516787153       13.4128585747        0.5712545636  MEMB      31              0.0000000000
      4146        31  POPC      H14X           23.1118697603       12.7573695816       -0.1987318538  MEMB      31              0.0000000000
      4147        31  POPC      H14Y           22.4680006461       14.3054328270       -0.0642714878  MEMB      31              0.0000000000
      4148        31  POPC      C315           21.2670782102       12.9191667817        0.9441983799  MEMB      31              0.0000000000
      4149        31  POPC      H15X           21.2850289519       12.0021826329        1.5712052472  MEMB      31              0.0000000000
      4150        31  POPC      H15Y           20.6697813028       12.6771201711        0.0392279059  MEMB      31              0.0000000000
      4151        31  POPC      C316           20.3840150038       13.9195380373        1.6510159780  MEMB      31              0.0000000000
      4152        31  POPC      H16X           20.0349074503       14.7332632131        0.9799741983  MEMB      31              0.0000000000
      4153        31  POPC      H16Y           20.8810832623       14.3489955389        2.5470115253  MEMB      31              0.0000000000
      4154        31  POPC      H16Z           19.4541741566       13.4438947839        2.0298035213  MEMB      31              0.0000000000
      4155        32  POPC      N             -21.5503980880      -23.2038641248       19.8152065943  MEMB      32              0.0000000000
      4156        32  POPC      C12           -22.0706030862      -22.8189496916       18.4402167022  MEMB      32              0.0000000000
      4157        32  POPC      H12A          -22.7407058941      -23.5756463005       18.0597269850  MEMB      32              0.0000000000
      4158        32  POPC      H12B          -21.2288324145      -22.7728324771       17.7651646850  MEMB      32              0.0000000000
      4159        32  POPC      C13           -22.6900714958      -23.3647796918       20.7963246560  MEMB      32              0.0000000000
      4160        32  POPC      H13A          -23.4374727499      -24.0393820106       20.4055521301  MEMB      32              0.0000000000
      4161        32  POPC      H13B          -22.3907142684      -23.6303607488       21.7994457830  MEMB      32              0.0000000000
      4162        32  POPC      H13C          -23.0871035663      -22.3607270652       20.8216973003  MEMB      32              0.0000000000
      4163        32  POPC      C14           -20.9911639014      -24.5596629832       19.5928284512  MEMB      32              0.0000000000
      4164        32  POPC      H14A          -20.4301071533      -24.8641773476       20.4639693467  MEMB      32              0.0000000000
      4165        32  POPC      H14B          -21.8385813040      -25.2134766231       19.4485670737  MEMB      32              0.0000000000
      4166        32  POPC      H14C          -20.3980062811      -24.5590471043       18.6902965957  MEMB      32              0.0000000000
      4167        32  POPC      C15           -20.4211042104      -22.2778089843       20.2688375432  MEMB      32              0.0000000000
      4168        32  POPC      H15A          -19.7473276317      -22.2464026768       19.4253691017  MEMB      32              0.0000000000
      4169        32  POPC      H15B          -19.8329832164      -22.6406616832       21.0988084590  MEMB      32              0.0000000000
      4170        32  POPC      H15C          -20.7597205142      -21.2585522061       20.3822150203  MEMB      32              0.0000000000
      4171        32  POPC      C11           -22.7780013310      -21.4420691090       18.2481290856  MEMB      32              0.0000000000
      4172        32  POPC      H11A          -22.8648125847      -21.2123437608       17.1646112169  MEMB      32              0.0000000000
      4173        32  POPC      H11B          -22.1602567069      -20.6328595136       18.6929802253  MEMB      32              0.0000000000
      4174        32  POPC      P             -25.3108173222      -22.1277491811       18.3688464299  MEMB      32              0.0000000000
      4175        32  POPC      O13           -25.9763100772      -21.2322482829       17.4661451758  MEMB      32              0.0000000000
      4176        32  POPC      O14           -26.0506059977      -22.7178270578       19.5209678426  MEMB      32              0.0000000000
      4177        32  POPC      O12           -24.0297992190      -21.3205085785       18.8744255729  MEMB      32              0.0000000000
      4178        32  POPC      O11           -24.7715609592      -23.3752434802       17.6080719460  MEMB      32              0.0000000000
      4179        32  POPC      C1            -25.7563694741      -24.1919966646       16.9559901376  MEMB      32              0.0000000000
      4180        32  POPC      HA            -26.2450533915      -23.6530372447       16.1163282618  MEMB      32              0.0000000000
      4181        32  POPC      HB            -26.6344636567      -24.4081540722       17.6013952013  MEMB      32              0.0000000000
      4182        32  POPC      C2            -25.1444621383      -25.4662138605       16.3102347017  MEMB      32              0.0000000000
      4183        32  POPC      HS            -24.9154376683      -26.0465957454       17.2294874217  MEMB      32              0.0000000000
      4184        32  POPC      O21           -23.8964138060      -25.1104459076       15.6848750126  MEMB      32              0.0000000000
      4185        32  POPC      C21           -23.0990602497      -26.0881960240       15.3914274684  MEMB      32              0.0000000000
      4186        32  POPC      O22           -23.1528802656      -27.2233030217       15.9320489808  MEMB      32              0.0000000000
      4187        32  POPC      C22           -21.9768183964      -25.6268944829       14.5613244885  MEMB      32              0.0000000000
      4188        32  POPC      H2R           -21.0436240521      -25.9941583076       15.0394319683  MEMB      32              0.0000000000
      4189        32  POPC      H2S           -21.9747073976      -24.5165040266       14.5980586556  MEMB      32              0.0000000000
      4190        32  POPC      C3            -25.9347833210      -26.3180129360       15.2717609295  MEMB      32              0.0000000000
      4191        32  POPC      HX            -26.8673820787      -26.5978081001       15.8068267458  MEMB      32              0.0000000000
      4192        32  POPC      HY            -25.3970641891      -27.2055927523       14.8750482003  MEMB      32              0.0000000000
      4193        32  POPC      O31           -26.2677119269      -25.4667310239       14.1976424921  MEMB      32              0.0000000000
      4194        32  POPC      C31           -26.5743797608      -25.9377319097       12.9889001220  MEMB      32              0.0000000000
      4195        32  POPC      O32           -26.5331024126      -27.1472486369       12.6602902594  MEMB      32              0.0000000000
      4196        32  POPC      C32           -27.1742062190      -24.8412758333       12.1607677323  MEMB      32              0.0000000000
      4197        32  POPC      H2X           -26.6410375326      -23.8999557030       12.4136882088  MEMB      32              0.0000000000
      4198        32  POPC      H2Y           -28.2572602980      -24.7366303757       12.3851879530  MEMB      32              0.0000000000
      4199        32  POPC      C23           -21.9782465701      -26.1169575806       13.1136691618  MEMB      32              0.0000000000
      4200        32  POPC      H3R           -22.2534363365      -27.1800066712       12.9447974731  MEMB      32              0.0000000000
      4201        32  POPC      H3S           -20.9576233021      -26.0495476375       12.6799583971  MEMB      32              0.0000000000
      4202        32  POPC      C24           -22.7753812493      -25.2228801847       12.1794610520  MEMB      32              0.0000000000
      4203        32  POPC      H4R           -22.7127141721      -24.2003924139       12.6094756024  MEMB      32              0.0000000000
      4204        32  POPC      H4S           -23.8390498681      -25.5417639851       12.1442018752  MEMB      32              0.0000000000
      4205        32  POPC      C25           -22.2681739332      -25.2778142359       10.7348124510  MEMB      32              0.0000000000
      4206        32  POPC      H5R           -22.3868886872      -26.3633952646       10.5305052711  MEMB      32              0.0000000000
      4207        32  POPC      H5S           -21.1873707495      -25.0406201800       10.6351919543  MEMB      32              0.0000000000
      4208        32  POPC      C26           -22.9927061530      -24.4893783060        9.6573171458  MEMB      32              0.0000000000
      4209        32  POPC      H6R           -24.0973776027      -24.5203150244        9.7716191391  MEMB      32              0.0000000000
      4210        32  POPC      H6S           -22.8083554219      -25.0467300276        8.7140811203  MEMB      32              0.0000000000
      4211        32  POPC      C27           -22.5185615384      -23.0773621133        9.3916575780  MEMB      32              0.0000000000
      4212        32  POPC      H7R           -21.4113103886      -22.9909522855        9.4207945920  MEMB      32              0.0000000000
      4213        32  POPC      H7S           -22.9051422844      -22.4355948193       10.2120294179  MEMB      32              0.0000000000
      4214        32  POPC      C28           -22.7137475502      -22.6150601658        7.9002874264  MEMB      32              0.0000000000
      4215        32  POPC      H8R           -23.6196042718      -23.1129310820        7.4930167912  MEMB      32              0.0000000000
      4216        32  POPC      H8S           -22.0192087667      -23.1200123642        7.1953334581  MEMB      32              0.0000000000
      4217        32  POPC      C29           -22.9517591005      -21.1438231584        7.9145165858  MEMB      32              0.0000000000
      4218        32  POPC      H91           -23.6417317929      -20.6815467608        8.6357919631  MEMB      32              0.0000000000
      4219        32  POPC      C210          -22.5164559407      -20.2603374411        7.0102731253  MEMB      32              0.0000000000
      4220        32  POPC      H101          -22.7861838229      -19.2086901665        7.1871505266  MEMB      32              0.0000000000
      4221        32  POPC      C211          -21.6393074747      -20.5606582497        5.7891206493  MEMB      32              0.0000000000
      4222        32  POPC      H11R          -21.5559486690      -21.6504282234        5.5896867264  MEMB      32              0.0000000000
      4223        32  POPC      H11S          -20.6324526545      -20.1275325781        5.9706872619  MEMB      32              0.0000000000
      4224        32  POPC      C212          -22.2708989671      -19.9372941828        4.5181947754  MEMB      32              0.0000000000
      4225        32  POPC      H12R          -21.6446558946      -20.1258217024        3.6200871024  MEMB      32              0.0000000000
      4226        32  POPC      H12S          -22.2292428817      -18.8378864260        4.6727545905  MEMB      32              0.0000000000
      4227        32  POPC      C213          -23.7138072878      -20.3719525284        4.1599780241  MEMB      32              0.0000000000
      4228        32  POPC      H13R          -24.4107890255      -20.1568751485        4.9979987321  MEMB      32              0.0000000000
      4229        32  POPC      H13S          -23.6595053444      -21.4715262895        4.0106148475  MEMB      32              0.0000000000
      4230        32  POPC      C214          -24.1159508108      -19.7435304314        2.8658233624  MEMB      32              0.0000000000
      4231        32  POPC      H14R          -23.4727900304      -20.0144126346        2.0013644193  MEMB      32              0.0000000000
      4232        32  POPC      H14S          -24.0251178141      -18.6446230453        3.0017407519  MEMB      32              0.0000000000
      4233        32  POPC      C215          -25.6406194747      -20.0421935871        2.6004006102  MEMB      32              0.0000000000
      4234        32  POPC      H15R          -26.1492231044      -19.2864709403        1.9643774288  MEMB      32              0.0000000000
      4235        32  POPC      H15S          -26.1443226184      -19.9781776330        3.5885844237  MEMB      32              0.0000000000
      4236        32  POPC      C216          -26.0792703447      -21.4590105127        2.0116352732  MEMB      32              0.0000000000
      4237        32  POPC      H16R          -27.1782087739      -21.4424988652        1.8492078497  MEMB      32              0.0000000000
      4238        32  POPC      H16S          -25.8408519367      -22.3735048028        2.5957399275  MEMB      32              0.0000000000
      4239        32  POPC      C217          -25.3167474715      -21.6623419988        0.6622553776  MEMB      32              0.0000000000
      4240        32  POPC      H17R          -24.2372199407      -21.8432683595        0.8525360403  MEMB      32              0.0000000000
      4241        32  POPC      H17S          -25.3855048039      -20.8361266209       -0.0773128758  MEMB      32              0.0000000000
      4242        32  POPC      C218          -25.8107544661      -22.8014983866       -0.1782476698  MEMB      32              0.0000000000
      4243        32  POPC      H18R          -26.7402714202      -22.5681251472       -0.7402590846  MEMB      32              0.0000000000
      4244        32  POPC      H18S          -25.8761941519      -23.6760106393        0.5038559461  MEMB      32              0.0000000000
      4245        32  POPC      H18T          -25.1483553725      -22.8971029816       -1.0650439652  MEMB      32              0.0000000000
      4246        32  POPC      C33           -27.0990800481      -25.4173909713       10.6620008847  MEMB      32              0.0000000000
      4247        32  POPC      H3X           -27.6644758731      -26.3667971808       10.5467769974  MEMB      32              0.0000000000
      4248        32  POPC      H3Y           -26.0196346413      -25.4748747917       10.4054582128  MEMB      32              0.0000000000
      4249        32  POPC      C34           -27.7482887741      -24.4445657248        9.7518704548  MEMB      32              0.0000000000
      4250        32  POPC      H4X           -27.4078706802      -23.3894573840        9.8238637358  MEMB      32              0.0000000000
      4251        32  POPC      H4Y           -28.8015707543      -24.2567060525       10.0512483760  MEMB      32              0.0000000000
      4252        32  POPC      C35           -27.7689610537      -24.9119998386        8.3043774124  MEMB      32              0.0000000000
      4253        32  POPC      H5X           -28.5618554735      -24.5694650948        7.6055861200  MEMB      32              0.0000000000
      4254        32  POPC      H5Y           -28.1017250276      -25.9650682437        8.4253568625  MEMB      32              0.0000000000
      4255        32  POPC      C36           -26.4756628148      -24.8085820619        7.4474974878  MEMB      32              0.0000000000
      4256        32  POPC      H6X           -25.5792247632      -25.3449378436        7.8257059292  MEMB      32              0.0000000000
      4257        32  POPC      H6Y           -26.1898581207      -23.7354772611        7.4804026868  MEMB      32              0.0000000000
      4258        32  POPC      C37           -26.7808813177      -25.3607836074        6.0784012913  MEMB      32              0.0000000000
      4259        32  POPC      H7X           -27.5572098033      -24.7478046672        5.5725442986  MEMB      32              0.0000000000
      4260        32  POPC      H7Y           -27.3539856679      -26.2787406880        6.3298516018  MEMB      32              0.0000000000
      4261        32  POPC      C38           -25.5919311803      -25.7089675778        5.2282313134  MEMB      32              0.0000000000
      4262        32  POPC      H8X           -26.0553892251      -26.3922810623        4.4848539264  MEMB      32              0.0000000000
      4263        32  POPC      H8Y           -24.8948813379      -26.3502536611        5.8089165234  MEMB      32              0.0000000000
      4264        32  POPC      C39           -24.9253331208      -24.4874415157        4.6172874676  MEMB      32              0.0000000000
      4265        32  POPC      H9X           -24.8299786078      -23.5729925188        5.2409955879  MEMB      32              0.0000000000
      4266        32  POPC      H9Y           -25.3927052228      -24.1876237936        3.6550014319  MEMB      32              0.0000000000
      4267        32  POPC      C310          -23.4325302078      -24.7446797668        4.2460090170  MEMB      32              0.0000000000
      4268        32  POPC      H10X          -22.7341189163      -24.5636876162        5.0908667221  MEMB      32              0.0000000000
      4269        32  POPC      H10Y          -23.2439923145      -23.9120771818        3.5349905226  MEMB      32              0.0000000000
      4270        32  POPC      C311          -23.0083543859      -26.2001178138        3.7267703354  MEMB      32              0.0000000000
      4271        32  POPC      H11X          -23.4038223615      -26.9301096016        4.4650375341  MEMB      32              0.0000000000
      4272        32  POPC      H11Y          -21.9005194400      -26.2538459085        3.7910836495  MEMB      32              0.0000000000
      4273        32  POPC      C312          -23.4720238590      -26.4951820870        2.3003778713  MEMB      32              0.0000000000
      4274        32  POPC      H12X          -24.4902920667      -26.1336746958        2.0419909868  MEMB      32              0.0000000000
      4275        32  POPC      H12Y          -23.5586597727      -27.5999067958        2.2203835298  MEMB      32              0.0000000000
      4276        32  POPC      C313          -22.5390499924      -26.0987863422        1.1565299201  MEMB      32              0.0000000000
      4277        32  POPC      H13X          -22.9813088226      -26.4078404012        0.1853380326  MEMB      32              0.0000000000
      4278        32  POPC      H13Y          -21.6728995564      -26.7847761881        1.2728153095  MEMB      32              0.0000000000
      4279        32  POPC      C314          -21.9269143734      -24.6922992684        1.1983596534  MEMB      32              0.0000000000
      4280        32  POPC      H14X          -21.4172523851      -24.4637426382        2.1587384527  MEMB      32              0.0000000000
      4281        32  POPC      H14Y          -22.7886331066      -23.9913319363        1.2185262334  MEMB      32              0.0000000000
      4282        32  POPC      C315          -20.9921841529      -24.5236614864       -0.0033079739  MEMB      32              0.0000000000
      4283        32  POPC      H15X          -21.3699548238      -25.1902870069       -0.8078084891  MEMB      32              0.0000000000
      4284        32  POPC      H15Y          -19.9902302014      -24.9528122740        0.2117250897  MEMB      32              0.0000000000
      4285        32  POPC      C316          -20.7822960300      -23.0611730740       -0.4040187781  MEMB      32              0.0000000000
      4286        32  POPC      H16X          -20.1439753257      -23.0674699155       -1.3133198219  MEMB      32              0.0000000000
      4287        32  POPC      H16Y          -20.4079137786      -22.5268478945        0.4952348812  MEMB      32              0.0000000000
      4288        32  POPC      H16Z          -21.7857644626      -22.6414760627       -0.6303509301  MEMB      32              0.0000000000
      4289        33  POPC      N               0.5662272421        2.2912109532      -21.0307354005  MEMB      33              0.0000000000
      4290        33  POPC      C12             1.3248628059        3.5422560126      -20.5033544263  MEMB      33              0.0000000000
      4291        33  POPC      H12A            1.4123423576        4.2423087819      -21.3210791074  MEMB      33              0.0000000000
      4292        33  POPC      H12B            2.3026226225        3.1628759031      -20.2455627588  MEMB      33              0.0000000000
      4293        33  POPC      C13             1.4799520520        1.6945285191      -22.0770598580  MEMB      33              0.0000000000
      4294        33  POPC      H13A            1.3518026293        2.1589052493      -23.0436684887  MEMB      33              0.0000000000
      4295        33  POPC      H13B            2.5196250238        1.6795233858      -21.7850754873  MEMB      33              0.0000000000
      4296        33  POPC      H13C            1.1548069078        0.6740344220      -22.2158849171  MEMB      33              0.0000000000
      4297        33  POPC      C14             0.3677043108        1.2656549874      -19.9376471617  MEMB      33              0.0000000000
      4298        33  POPC      H14A           -0.2499991941        1.6933420956      -19.1618082559  MEMB      33              0.0000000000
      4299        33  POPC      H14B           -0.0065775721        0.3642043934      -20.3999241247  MEMB      33              0.0000000000
      4300        33  POPC      H14C            1.2681815721        1.0975423433      -19.3655642056  MEMB      33              0.0000000000
      4301        33  POPC      C15            -0.7912646431        2.7205420979      -21.6201141909  MEMB      33              0.0000000000
      4302        33  POPC      H15A           -1.4287593994        3.1427104345      -20.8573728672  MEMB      33              0.0000000000
      4303        33  POPC      H15B           -1.2568052448        1.8205724105      -21.9939141253  MEMB      33              0.0000000000
      4304        33  POPC      H15C           -0.5428129320        3.3225296267      -22.4816725390  MEMB      33              0.0000000000
      4305        33  POPC      C11             0.7550201645        4.4910958623      -19.4292147087  MEMB      33              0.0000000000
      4306        33  POPC      H11A           -0.0826766826        5.0508608863      -19.8974540730  MEMB      33              0.0000000000
      4307        33  POPC      H11B            1.5632697219        5.1723892324      -19.0873184690  MEMB      33              0.0000000000
      4308        33  POPC      P               0.5281656344        4.0938371790      -16.8231249984  MEMB      33              0.0000000000
      4309        33  POPC      O13            -0.6702491767        4.8218258092      -16.3309056041  MEMB      33              0.0000000000
      4310        33  POPC      O14             1.8644411143        4.7713125754      -16.7128256153  MEMB      33              0.0000000000
      4311        33  POPC      O12             0.1982392668        3.7074007309      -18.3682091893  MEMB      33              0.0000000000
      4312        33  POPC      O11             0.6848897944        2.6694162575      -16.1668088428  MEMB      33              0.0000000000
      4313        33  POPC      C1              1.8946413357        1.9482613301      -16.2933072113  MEMB      33              0.0000000000
      4314        33  POPC      HA              2.7566366567        2.5984955320      -16.0316195728  MEMB      33              0.0000000000
      4315        33  POPC      HB              2.0657122853        1.7555456093      -17.3740089754  MEMB      33              0.0000000000
      4316        33  POPC      C2              1.9353432106        0.5743487204      -15.4420738948  MEMB      33              0.0000000000
      4317        33  POPC      HS              2.5133526666       -0.1566604644      -16.0469306758  MEMB      33              0.0000000000
      4318        33  POPC      O21             0.5493080912        0.0989336401      -15.4511273081  MEMB      33              0.0000000000
      4319        33  POPC      C21             0.3185554216       -1.1560582933      -15.0107791964  MEMB      33              0.0000000000
      4320        33  POPC      O22             1.1917867998       -1.8690798530      -14.5265164796  MEMB      33              0.0000000000
      4321        33  POPC      C22            -1.1604900680       -1.5249027896      -15.0462297630  MEMB      33              0.0000000000
      4322        33  POPC      H2R            -1.1954851286       -2.6216958805      -14.8726179517  MEMB      33              0.0000000000
      4323        33  POPC      H2S            -1.4668517108       -1.3542618133      -16.1004331317  MEMB      33              0.0000000000
      4324        33  POPC      C3              2.4959853532        0.7973915198      -13.9836181890  MEMB      33              0.0000000000
      4325        33  POPC      HX              3.5444351780        1.1372468266      -14.1235188787  MEMB      33              0.0000000000
      4326        33  POPC      HY              2.4260469503       -0.1392912879      -13.3902754601  MEMB      33              0.0000000000
      4327        33  POPC      O31             1.7956457518        1.8161002843      -13.3092964685  MEMB      33              0.0000000000
      4328        33  POPC      C31             2.2802123062        1.9643565504      -12.0341758122  MEMB      33              0.0000000000
      4329        33  POPC      O32             3.3422495218        1.4743232277      -11.6637001052  MEMB      33              0.0000000000
      4330        33  POPC      C32             1.4457324423        2.9892683171      -11.2788328591  MEMB      33              0.0000000000
      4331        33  POPC      H2X             1.6903646827        4.0310132776      -11.5775699832  MEMB      33              0.0000000000
      4332        33  POPC      H2Y             1.6838466391        2.8272290749      -10.2058157039  MEMB      33              0.0000000000
      4333        33  POPC      C23            -2.0895664083       -0.7666006491      -14.0544751488  MEMB      33              0.0000000000
      4334        33  POPC      H3R            -3.1862314411       -0.9219396838      -14.1411728217  MEMB      33              0.0000000000
      4335        33  POPC      H3S            -1.8165291744        0.2739341996      -14.3320699485  MEMB      33              0.0000000000
      4336        33  POPC      C24            -1.6982184815       -0.8400554560      -12.5885567599  MEMB      33              0.0000000000
      4337        33  POPC      H4R            -0.6060264434       -0.6462609809      -12.5262560228  MEMB      33              0.0000000000
      4338        33  POPC      H4S            -1.8967417675       -1.8746612974      -12.2357104661  MEMB      33              0.0000000000
      4339        33  POPC      C25            -2.6179566616       -0.0604667442      -11.6734332256  MEMB      33              0.0000000000
      4340        33  POPC      H5R            -3.6653276319       -0.2704897322      -11.9787609901  MEMB      33              0.0000000000
      4341        33  POPC      H5S            -2.5389428495        1.0310020192      -11.8651981482  MEMB      33              0.0000000000
      4342        33  POPC      C26            -2.3647228142       -0.3902466038      -10.1817348454  MEMB      33              0.0000000000
      4343        33  POPC      H6R            -1.4477181724        0.1867579632       -9.9357891291  MEMB      33              0.0000000000
      4344        33  POPC      H6S            -2.2545923556       -1.4689893212       -9.9398535983  MEMB      33              0.0000000000
      4345        33  POPC      C27            -3.3908076527        0.1999229753       -9.2007257890  MEMB      33              0.0000000000
      4346        33  POPC      H7R            -4.4208979182       -0.1198319514       -9.4671693341  MEMB      33              0.0000000000
      4347        33  POPC      H7S            -3.3192441278        1.2840959451       -9.4326062115  MEMB      33              0.0000000000
      4348        33  POPC      C28            -3.3541177500       -0.1333147519       -7.7108863092  MEMB      33              0.0000000000
      4349        33  POPC      H8R            -3.4959638604       -1.2309134317       -7.6135327841  MEMB      33              0.0000000000
      4350        33  POPC      H8S            -4.1483876228        0.2742091850       -7.0495384085  MEMB      33              0.0000000000
      4351        33  POPC      C29            -2.0124857165        0.3169331073       -7.1027131191  MEMB      33              0.0000000000
      4352        33  POPC      H91            -1.6885402773        1.3302783058       -7.3823384505  MEMB      33              0.0000000000
      4353        33  POPC      C210           -1.2193449103       -0.3177724078       -6.1899839104  MEMB      33              0.0000000000
      4354        33  POPC      H101           -0.1766405128        0.0065057120       -6.0572764535  MEMB      33              0.0000000000
      4355        33  POPC      C211           -1.4609788984       -1.6403992406       -5.5514574809  MEMB      33              0.0000000000
      4356        33  POPC      H11R           -0.5095976764       -2.0770544388       -5.1792650818  MEMB      33              0.0000000000
      4357        33  POPC      H11S           -1.9145629668       -2.4000903713       -6.2233592601  MEMB      33              0.0000000000
      4358        33  POPC      C212           -2.3078594515       -1.6341721053       -4.2619197758  MEMB      33              0.0000000000
      4359        33  POPC      H12R           -2.2105066577       -2.6445917997       -3.8103724216  MEMB      33              0.0000000000
      4360        33  POPC      H12S           -3.3810018443       -1.4321020650       -4.4665017483  MEMB      33              0.0000000000
      4361        33  POPC      C213           -1.8671668013       -0.6346756534       -3.1594845827  MEMB      33              0.0000000000
      4362        33  POPC      H13R           -1.8661291328        0.3917679713       -3.5846113381  MEMB      33              0.0000000000
      4363        33  POPC      H13S           -0.8726445131       -0.8181904790       -2.6995177231  MEMB      33              0.0000000000
      4364        33  POPC      C214           -2.8008173901       -0.5741751756       -1.9617244597  MEMB      33              0.0000000000
      4365        33  POPC      H14R           -2.7745607275       -1.6011685500       -1.5387411575  MEMB      33              0.0000000000
      4366        33  POPC      H14S           -3.7551483565       -0.0680062304       -2.2212748585  MEMB      33              0.0000000000
      4367        33  POPC      C215           -2.2299590264        0.3704112962       -0.8535953664  MEMB      33              0.0000000000
      4368        33  POPC      H15R           -3.0202011895        0.5189157210       -0.0869242012  MEMB      33              0.0000000000
      4369        33  POPC      H15S           -2.1501127371        1.4525428531       -1.0922115076  MEMB      33              0.0000000000
      4370        33  POPC      C216           -0.9872588855       -0.1793651843       -0.1274126183  MEMB      33              0.0000000000
      4371        33  POPC      H16R           -0.0124177034        0.0709073320       -0.5979108279  MEMB      33              0.0000000000
      4372        33  POPC      H16S           -1.1080223922       -1.2834121592       -0.1560050317  MEMB      33              0.0000000000
      4373        33  POPC      C217           -0.8767805502        0.1617020979        1.3048156512  MEMB      33              0.0000000000
      4374        33  POPC      H17R           -1.8245706465       -0.0843586914        1.8296655483  MEMB      33              0.0000000000
      4375        33  POPC      H17S           -0.6477860633        1.2383517925        1.4555076931  MEMB      33              0.0000000000
      4376        33  POPC      C218            0.3007499029       -0.5856480557        1.9156899635  MEMB      33              0.0000000000
      4377        33  POPC      H18R            0.0765426338       -1.6730178646        1.8747126039  MEMB      33              0.0000000000
      4378        33  POPC      H18S            0.4083112764       -0.3322255744        2.9920397955  MEMB      33              0.0000000000
      4379        33  POPC      H18T            1.2010460959       -0.3966158074        1.2927499950  MEMB      33              0.0000000000
      4380        33  POPC      C33            -0.0429180877        2.7838171449      -11.6265330126  MEMB      33              0.0000000000
      4381        33  POPC      H3X            -0.4817065332        2.0664441740      -10.9004743544  MEMB      33              0.0000000000
      4382        33  POPC      H3Y            -0.2886549962        2.3893966060      -12.6356748140  MEMB      33              0.0000000000
      4383        33  POPC      C34            -0.8360174492        4.0722618305      -11.4503927001  MEMB      33              0.0000000000
      4384        33  POPC      H4X            -1.9008288250        3.8933243084      -11.7120779180  MEMB      33              0.0000000000
      4385        33  POPC      H4Y            -0.3130384137        4.8473068603      -12.0504919175  MEMB      33              0.0000000000
      4386        33  POPC      C35            -0.8904110629        4.4780454605      -10.0164479178  MEMB      33              0.0000000000
      4387        33  POPC      H5X            -0.9600038619        5.5703920529       -9.8260350596  MEMB      33              0.0000000000
      4388        33  POPC      H5Y             0.1059470430        4.3280780216       -9.5483653819  MEMB      33              0.0000000000
      4389        33  POPC      C36            -1.9902379040        3.8802997526       -9.0209573917  MEMB      33              0.0000000000
      4390        33  POPC      H6X            -1.9308287546        2.7756384878       -9.1234998586  MEMB      33              0.0000000000
      4391        33  POPC      H6Y            -2.9937653629        4.2278716573       -9.3472211704  MEMB      33              0.0000000000
      4392        33  POPC      C37            -1.8328731156        4.3663522012       -7.5235756377  MEMB      33              0.0000000000
      4393        33  POPC      H7X            -2.7331187177        4.0051734037       -6.9818847366  MEMB      33              0.0000000000
      4394        33  POPC      H7Y            -1.9000260550        5.4748501407       -7.5558897542  MEMB      33              0.0000000000
      4395        33  POPC      C38            -0.5441523917        3.8603831958       -6.9433209966  MEMB      33              0.0000000000
      4396        33  POPC      H8X             0.2822285257        4.4216170495       -7.4295641524  MEMB      33              0.0000000000
      4397        33  POPC      H8Y            -0.3314556584        2.7819704846       -7.1048978111  MEMB      33              0.0000000000
      4398        33  POPC      C39            -0.5025230772        3.9364513829       -5.3935003918  MEMB      33              0.0000000000
      4399        33  POPC      H9X            -1.4025943784        3.3634164588       -5.0839456106  MEMB      33              0.0000000000
      4400        33  POPC      H9Y            -0.5320537811        4.9994877553       -5.0719383063  MEMB      33              0.0000000000
      4401        33  POPC      C310            0.6656581263        3.2697466427       -4.7209573074  MEMB      33              0.0000000000
      4402        33  POPC      H10X            1.6548655042        3.5378778294       -5.1497883987  MEMB      33              0.0000000000
      4403        33  POPC      H10Y            0.5746044217        2.1790291465       -4.9116547743  MEMB      33              0.0000000000
      4404        33  POPC      C311            0.8242508727        3.5875058777       -3.2595623349  MEMB      33              0.0000000000
      4405        33  POPC      H11X           -0.1003970643        3.3343467061       -2.6980844091  MEMB      33              0.0000000000
      4406        33  POPC      H11Y            1.0282193579        4.6719830019       -3.1306162884  MEMB      33              0.0000000000
      4407        33  POPC      C312            1.9135884895        2.8313622963       -2.6030891823  MEMB      33              0.0000000000
      4408        33  POPC      H12X            2.8504169282        2.7341694498       -3.1923494494  MEMB      33              0.0000000000
      4409        33  POPC      H12Y            1.5160212545        1.8017699357       -2.4758067115  MEMB      33              0.0000000000
      4410        33  POPC      C313            2.3397212691        3.3936903645       -1.2602108569  MEMB      33              0.0000000000
      4411        33  POPC      H13X            1.4875243332        3.0671107828       -0.6266281107  MEMB      33              0.0000000000
      4412        33  POPC      H13Y            2.4689850563        4.4970687368       -1.2472443189  MEMB      33              0.0000000000
      4413        33  POPC      C314            3.7381594224        2.7752947934       -0.7728710673  MEMB      33              0.0000000000
      4414        33  POPC      H14X            3.9354071743        3.1759482151        0.2444248449  MEMB      33              0.0000000000
      4415        33  POPC      H14Y            4.5478541267        3.0359625429       -1.4875508522  MEMB      33              0.0000000000
      4416        33  POPC      C315            3.5631362822        1.2602850547       -0.4744682314  MEMB      33              0.0000000000
      4417        33  POPC      H15X            3.4317757122        0.6862794780       -1.4165848479  MEMB      33              0.0000000000
      4418        33  POPC      H15Y            2.5668594008        1.3494071030        0.0090714195  MEMB      33              0.0000000000
      4419        33  POPC      C316            4.5751323539        0.4731864147        0.4806495263  MEMB      33              0.0000000000
      4420        33  POPC      H16X            4.0156192194        0.4722659021        1.4404762760  MEMB      33              0.0000000000
      4421        33  POPC      H16Y            5.4795712849        1.0926551636        0.6611185630  MEMB      33              0.0000000000
      4422        33  POPC      H16Z            4.8288882690       -0.5597875356        0.1598783848  MEMB      33              0.0000000000
      4423        34  POPC      N              -0.8177641314       -2.8952855810      -19.5371894959  MEMB      34              0.0000000000
      4424        34  POPC      C12            -1.1037284961       -3.7535948157      -18.2661617348  MEMB      34              0.0000000000
      4425        34  POPC      H12A           -1.7375624561       -3.1709748546      -17.6140815499  MEMB      34              0.0000000000
      4426        34  POPC      H12B           -0.1788231203       -3.9341107352      -17.7385596549  MEMB      34              0.0000000000
      4427        34  POPC      C13            -0.4395669775       -1.5377839028      -19.0252961653  MEMB      34              0.0000000000
      4428        34  POPC      H13A           -0.2002563862       -0.9559977214      -19.9031660528  MEMB      34              0.0000000000
      4429        34  POPC      H13B           -1.2234254377       -1.0388807116      -18.4747860013  MEMB      34              0.0000000000
      4430        34  POPC      H13C            0.4638953267       -1.6076275121      -18.4376927002  MEMB      34              0.0000000000
      4431        34  POPC      C14             0.3332844390       -3.4027217963      -20.3359670223  MEMB      34              0.0000000000
      4432        34  POPC      H14A            1.2797693820       -3.3879299063      -19.8160175649  MEMB      34              0.0000000000
      4433        34  POPC      H14B            0.2521457858       -4.4272375461      -20.6679066723  MEMB      34              0.0000000000
      4434        34  POPC      H14C            0.4361038947       -2.7591965512      -21.1971890868  MEMB      34              0.0000000000
      4435        34  POPC      C15            -2.0418817401       -2.8032547474      -20.4669997593  MEMB      34              0.0000000000
      4436        34  POPC      H15A           -2.7988514330       -2.4041387123      -19.8081343975  MEMB      34              0.0000000000
      4437        34  POPC      H15B           -2.2969899429       -3.7485028093      -20.9228791118  MEMB      34              0.0000000000
      4438        34  POPC      H15C           -1.8740975636       -2.0202093131      -21.1916293784  MEMB      34              0.0000000000
      4439        34  POPC      C11            -1.7585124284       -5.1350286001      -18.4316280830  MEMB      34              0.0000000000
      4440        34  POPC      H11A           -2.7777659159       -4.9646293947      -18.8395586807  MEMB      34              0.0000000000
      4441        34  POPC      H11B           -1.8601987640       -5.6744313134      -17.4656956161  MEMB      34              0.0000000000
      4442        34  POPC      P               0.0825453334       -7.1366970469      -18.5945203946  MEMB      34              0.0000000000
      4443        34  POPC      O13             1.0528387490       -6.3949663015      -17.7413106374  MEMB      34              0.0000000000
      4444        34  POPC      O14             0.5868701075       -7.8903853903      -19.7373161386  MEMB      34              0.0000000000
      4445        34  POPC      O12            -0.9886451242       -5.9902002057      -19.2455437603  MEMB      34              0.0000000000
      4446        34  POPC      O11            -0.7602596144       -8.0069662434      -17.6180668104  MEMB      34              0.0000000000
      4447        34  POPC      C1              0.1233266298       -8.8633930214      -16.7559458146  MEMB      34              0.0000000000
      4448        34  POPC      HA              0.6795000618       -8.2277855902      -16.0341459784  MEMB      34              0.0000000000
      4449        34  POPC      HB              0.8377354817       -9.4788762025      -17.3434160301  MEMB      34              0.0000000000
      4450        34  POPC      C2             -0.8450707609       -9.7578119102      -15.9207697771  MEMB      34              0.0000000000
      4451        34  POPC      HS             -1.3738470406      -10.4816445259      -16.5771103936  MEMB      34              0.0000000000
      4452        34  POPC      O21            -1.8144473966       -8.8947518859      -15.2838639228  MEMB      34              0.0000000000
      4453        34  POPC      C21            -2.5568006881       -9.3205263891      -14.2636523210  MEMB      34              0.0000000000
      4454        34  POPC      O22            -2.5984302365      -10.4444047372      -13.8509380781  MEMB      34              0.0000000000
      4455        34  POPC      C22            -3.2145642232       -8.1264155773      -13.4951849546  MEMB      34              0.0000000000
      4456        34  POPC      H2R            -3.7031166614       -8.5177821879      -12.5773236932  MEMB      34              0.0000000000
      4457        34  POPC      H2S            -4.0322546133       -7.8508288204      -14.1950103384  MEMB      34              0.0000000000
      4458        34  POPC      C3              0.0168369830      -10.6385459938      -14.9364257421  MEMB      34              0.0000000000
      4459        34  POPC      HX              0.6806994813      -11.3244845579      -15.5048409622  MEMB      34              0.0000000000
      4460        34  POPC      HY             -0.4377049489      -11.2573350166      -14.1334233910  MEMB      34              0.0000000000
      4461        34  POPC      O31             0.9116517653       -9.7987122511      -14.2504496195  MEMB      34              0.0000000000
      4462        34  POPC      C31             0.8564738979       -9.5984846941      -12.8773756772  MEMB      34              0.0000000000
      4463        34  POPC      O32             0.0991163530      -10.0893883427      -12.1061380962  MEMB      34              0.0000000000
      4464        34  POPC      C32             2.0404633543       -8.6888499432      -12.4436375938  MEMB      34              0.0000000000
      4465        34  POPC      H2X             2.1596142981       -7.8721884240      -13.1874037281  MEMB      34              0.0000000000
      4466        34  POPC      H2Y             2.8909133264       -9.4007527573      -12.5088293963  MEMB      34              0.0000000000
      4467        34  POPC      C23            -2.2341423798       -6.9319359895      -13.2051440700  MEMB      34              0.0000000000
      4468        34  POPC      H3R            -2.2248709837       -6.3664468544      -14.1614167746  MEMB      34              0.0000000000
      4469        34  POPC      H3S            -1.2296786861       -7.3999960729      -13.1258133129  MEMB      34              0.0000000000
      4470        34  POPC      C24            -2.5296278533       -6.0939505389      -12.0430152569  MEMB      34              0.0000000000
      4471        34  POPC      H4R            -2.7008845009       -6.7423385158      -11.1572470924  MEMB      34              0.0000000000
      4472        34  POPC      H4S            -3.5375284983       -5.6270033581      -12.0225839213  MEMB      34              0.0000000000
      4473        34  POPC      C25            -1.4370892256       -5.0741411889      -11.8721105716  MEMB      34              0.0000000000
      4474        34  POPC      H5R            -1.4707890592       -4.2871189475      -12.6555528997  MEMB      34              0.0000000000
      4475        34  POPC      H5S            -0.4397441774       -5.5594950943      -11.9357935640  MEMB      34              0.0000000000
      4476        34  POPC      C26            -1.4825339552       -4.4317284686      -10.4122605785  MEMB      34              0.0000000000
      4477        34  POPC      H6R            -1.3246112008       -5.2646721842       -9.6942176577  MEMB      34              0.0000000000
      4478        34  POPC      H6S            -2.4840554713       -3.9932080377      -10.2148381354  MEMB      34              0.0000000000
      4479        34  POPC      C27            -0.4533481550       -3.3864414816      -10.3272728073  MEMB      34              0.0000000000
      4480        34  POPC      H7R            -0.5447097082       -2.6654647102      -11.1676100438  MEMB      34              0.0000000000
      4481        34  POPC      H7S             0.5377072702       -3.8866087997      -10.2829699200  MEMB      34              0.0000000000
      4482        34  POPC      C28            -0.6509182777       -2.6684205059       -8.9571591658  MEMB      34              0.0000000000
      4483        34  POPC      H8R            -0.8247572026       -3.3556634664       -8.1017073087  MEMB      34              0.0000000000
      4484        34  POPC      H8S            -1.5330779473       -2.0094920891       -9.1052432846  MEMB      34              0.0000000000
      4485        34  POPC      C29             0.5986087632       -1.8251620717       -8.8662402611  MEMB      34              0.0000000000
      4486        34  POPC      H91             0.5902606097       -0.8421177391       -9.3597518787  MEMB      34              0.0000000000
      4487        34  POPC      C210            1.6291950692       -2.2663740653       -8.1541040550  MEMB      34              0.0000000000
      4488        34  POPC      H101            2.5546887302       -1.6752065603       -8.2172082253  MEMB      34              0.0000000000
      4489        34  POPC      C211            1.8197978368       -3.5145350991       -7.3372830150  MEMB      34              0.0000000000
      4490        34  POPC      H11R            2.7031716566       -4.1561109081       -7.5430801183  MEMB      34              0.0000000000
      4491        34  POPC      H11S            1.0100890461       -4.2610941711       -7.4833740175  MEMB      34              0.0000000000
      4492        34  POPC      C212            1.9253966145       -3.1208568133       -5.9092395330  MEMB      34              0.0000000000
      4493        34  POPC      H12R            0.8879385864       -2.8869022250       -5.5878876619  MEMB      34              0.0000000000
      4494        34  POPC      H12S            2.5810230172       -2.2479626574       -5.7030086037  MEMB      34              0.0000000000
      4495        34  POPC      C213            2.3749228797       -4.3436913562       -5.0054481283  MEMB      34              0.0000000000
      4496        34  POPC      H13R            3.3117584238       -4.5565691441       -5.5634287621  MEMB      34              0.0000000000
      4497        34  POPC      H13S            1.7045032198       -5.2251306186       -5.0944620581  MEMB      34              0.0000000000
      4498        34  POPC      C214            2.4148513151       -3.9474737383       -3.5376374528  MEMB      34              0.0000000000
      4499        34  POPC      H14R            3.1247759881       -3.0988989692       -3.4363989226  MEMB      34              0.0000000000
      4500        34  POPC      H14S            3.0191766287       -4.7653659189       -3.0902391403  MEMB      34              0.0000000000
      4501        34  POPC      C215            1.0817865156       -3.7126028211       -2.9307411298  MEMB      34              0.0000000000
      4502        34  POPC      H15R            0.4665809130       -4.5863053117       -3.2348579902  MEMB      34              0.0000000000
      4503        34  POPC      H15S            0.5613358389       -2.8009659405       -3.2945677598  MEMB      34              0.0000000000
      4504        34  POPC      C216            1.1601948202       -3.6553040567       -1.3869255296  MEMB      34              0.0000000000
      4505        34  POPC      H16R            1.7232979482       -2.7451525626       -1.0888324080  MEMB      34              0.0000000000
      4506        34  POPC      H16S            1.7888935071       -4.4646692314       -0.9579897020  MEMB      34              0.0000000000
      4507        34  POPC      C217           -0.1940689050       -3.4903989450       -0.6923721201  MEMB      34              0.0000000000
      4508        34  POPC      H17R           -0.9292101557       -4.2960822597       -0.9039437435  MEMB      34              0.0000000000
      4509        34  POPC      H17S           -0.6882882090       -2.5593963044       -1.0435156899  MEMB      34              0.0000000000
      4510        34  POPC      C218            0.0348669547       -3.4212066855        0.7926444016  MEMB      34              0.0000000000
      4511        34  POPC      H18R           -0.8472569974       -3.1099123763        1.3920392274  MEMB      34              0.0000000000
      4512        34  POPC      H18S            0.8046754354       -2.6383660676        0.9625746221  MEMB      34              0.0000000000
      4513        34  POPC      H18T            0.4642291666       -4.3722981209        1.1739490700  MEMB      34              0.0000000000
      4514        34  POPC      C33             1.9516542607       -8.2466685653      -10.9488595829  MEMB      34              0.0000000000
      4515        34  POPC      H3X             0.8669308372       -8.0958298887      -10.7619268316  MEMB      34              0.0000000000
      4516        34  POPC      H3Y             2.4279546826       -7.2515692334      -10.8175731336  MEMB      34              0.0000000000
      4517        34  POPC      C34             2.4686867280       -9.2491303893       -9.8413613601  MEMB      34              0.0000000000
      4518        34  POPC      H4X             3.5322829701       -9.4489279903      -10.0926873530  MEMB      34              0.0000000000
      4519        34  POPC      H4Y             1.9111856201      -10.2097075606       -9.8697339818  MEMB      34              0.0000000000
      4520        34  POPC      C35             2.3095613276       -8.6671180363       -8.3775386871  MEMB      34              0.0000000000
      4521        34  POPC      H5X             3.1348562244       -7.9422060664       -8.2110693345  MEMB      34              0.0000000000
      4522        34  POPC      H5Y             2.5505878410       -9.4692482826       -7.6475964416  MEMB      34              0.0000000000
      4523        34  POPC      C36             0.9607927689       -7.9893680901       -8.0254815890  MEMB      34              0.0000000000
      4524        34  POPC      H6X             0.7128507066       -7.2061436724       -8.7734153617  MEMB      34              0.0000000000
      4525        34  POPC      H6Y             1.1397821554       -7.3571516273       -7.1296091111  MEMB      34              0.0000000000
      4526        34  POPC      C37            -0.1609017456       -9.0094769620       -7.9624566588  MEMB      34              0.0000000000
      4527        34  POPC      H7X             0.0157552073       -9.7669023358       -7.1690971218  MEMB      34              0.0000000000
      4528        34  POPC      H7Y            -0.1160141882       -9.5448114351       -8.9349392308  MEMB      34              0.0000000000
      4529        34  POPC      C38            -1.5679540477       -8.3844621418       -7.6491633765  MEMB      34              0.0000000000
      4530        34  POPC      H8X            -2.2844575968       -9.2242881268       -7.5241179988  MEMB      34              0.0000000000
      4531        34  POPC      H8Y            -1.8643950819       -7.7813846571       -8.5338895056  MEMB      34              0.0000000000
      4532        34  POPC      C39            -1.8338316277       -7.4229243576       -6.4921394856  MEMB      34              0.0000000000
      4533        34  POPC      H9X            -2.8910550348       -7.0818152383       -6.4765077887  MEMB      34              0.0000000000
      4534        34  POPC      H9Y            -1.1577217639       -6.5488810193       -6.6072253769  MEMB      34              0.0000000000
      4535        34  POPC      C310           -1.5759169729       -8.1470376016       -5.0839214839  MEMB      34              0.0000000000
      4536        34  POPC      H10X           -0.6756948159       -8.7704931677       -5.2716029193  MEMB      34              0.0000000000
      4537        34  POPC      H10Y           -2.4551945619       -8.8130061990       -4.9509622071  MEMB      34              0.0000000000
      4538        34  POPC      C311           -1.2870700899       -7.2811498744       -3.8985179205  MEMB      34              0.0000000000
      4539        34  POPC      H11X           -2.1115782180       -6.5373121308       -3.9333421254  MEMB      34              0.0000000000
      4540        34  POPC      H11Y           -0.3938257266       -6.6401350290       -4.0583155421  MEMB      34              0.0000000000
      4541        34  POPC      C312           -1.2145290078       -8.0113155426       -2.5672945850  MEMB      34              0.0000000000
      4542        34  POPC      H12X           -0.3623731034       -7.4552644939       -2.1212476496  MEMB      34              0.0000000000
      4543        34  POPC      H12Y           -0.9607991755       -9.0844981956       -2.7022810800  MEMB      34              0.0000000000
      4544        34  POPC      C313           -2.5624843273       -7.7833979203       -1.7325853303  MEMB      34              0.0000000000
      4545        34  POPC      H13X           -3.2945771699       -8.6101854536       -1.8541720374  MEMB      34              0.0000000000
      4546        34  POPC      H13Y           -2.9006731252       -6.7665806145       -2.0258971169  MEMB      34              0.0000000000
      4547        34  POPC      C314           -2.2219278158       -7.7631246970       -0.2343694976  MEMB      34              0.0000000000
      4548        34  POPC      H14X           -1.1199692394       -7.6313105529       -0.1830527078  MEMB      34              0.0000000000
      4549        34  POPC      H14Y           -2.4936474761       -8.7682462385        0.1532121897  MEMB      34              0.0000000000
      4550        34  POPC      C315           -3.0174936489       -6.6661327831        0.5354652167  MEMB      34              0.0000000000
      4551        34  POPC      H15X           -4.0685078882       -6.6702900602        0.1753635164  MEMB      34              0.0000000000
      4552        34  POPC      H15Y           -2.5694464128       -5.6747487386        0.3102260596  MEMB      34              0.0000000000
      4553        34  POPC      C316           -3.0847164315       -6.7732562504        2.0716037429  MEMB      34              0.0000000000
      4554        34  POPC      H16X           -2.0605823354       -6.7712678456        2.5022627516  MEMB      34              0.0000000000
      4555        34  POPC      H16Y           -3.6463297398       -7.6848124265        2.3682130139  MEMB      34              0.0000000000
      4556        34  POPC      H16Z           -3.7124522310       -5.8955152483        2.3358763947  MEMB      34              0.0000000000
      4557        35  POPC      N              -9.5159036879       -0.2935747593      -19.9801203074  MEMB      35              0.0000000000
      4558        35  POPC      C12            -8.2335458898       -0.5702019797      -20.7435398678  MEMB      35              0.0000000000
      4559        35  POPC      H12A           -8.2849027928        0.0033517789      -21.6572128755  MEMB      35              0.0000000000
      4560        35  POPC      H12B           -8.2529899407       -1.6012665749      -21.0643634057  MEMB      35              0.0000000000
      4561        35  POPC      C13            -9.2726842331       -0.8895139949      -18.5942882551  MEMB      35              0.0000000000
      4562        35  POPC      H13A           -9.1211560896       -1.9492010622      -18.7374759543  MEMB      35              0.0000000000
      4563        35  POPC      H13B           -8.4688903049       -0.5019639184      -17.9859130307  MEMB      35              0.0000000000
      4564        35  POPC      H13C          -10.2510123910       -0.9064749874      -18.1371380315  MEMB      35              0.0000000000
      4565        35  POPC      C14            -9.7247725876        1.2762703082      -19.7542678116  MEMB      35              0.0000000000
      4566        35  POPC      H14A           -9.9955986987        1.7211270953      -20.7003944821  MEMB      35              0.0000000000
      4567        35  POPC      H14B          -10.6332488750        1.3392867831      -19.1736648231  MEMB      35              0.0000000000
      4568        35  POPC      H14C           -8.9078999912        1.6293418645      -19.1423367560  MEMB      35              0.0000000000
      4569        35  POPC      C15           -10.7104692948       -0.8984680685      -20.6025138094  MEMB      35              0.0000000000
      4570        35  POPC      H15A          -11.5049791942       -0.7580499533      -19.8845747257  MEMB      35              0.0000000000
      4571        35  POPC      H15B          -10.4420140222       -1.9198101519      -20.8287702200  MEMB      35              0.0000000000
      4572        35  POPC      H15C          -10.8540240038       -0.3214141996      -21.5040684676  MEMB      35              0.0000000000
      4573        35  POPC      C11            -6.8719198610       -0.4947562293      -19.9680693860  MEMB      35              0.0000000000
      4574        35  POPC      H11A           -5.9306592940       -0.6237596421      -20.5440100003  MEMB      35              0.0000000000
      4575        35  POPC      H11B           -6.9193246598       -1.4594876882      -19.4191003693  MEMB      35              0.0000000000
      4576        35  POPC      P              -5.6618465715        0.6519573952      -17.8649982561  MEMB      35              0.0000000000
      4577        35  POPC      O13            -4.2396112652        0.9269055739      -18.3627704032  MEMB      35              0.0000000000
      4578        35  POPC      O14            -5.8956619583       -0.5753339184      -17.0649560753  MEMB      35              0.0000000000
      4579        35  POPC      O12            -6.7356071369        0.6665488200      -19.1134998742  MEMB      35              0.0000000000
      4580        35  POPC      O11            -6.1977336376        1.8025362614      -16.9509759522  MEMB      35              0.0000000000
      4581        35  POPC      C1             -6.1368608553        3.0675629968      -17.5550446551  MEMB      35              0.0000000000
      4582        35  POPC      HA             -6.8805102192        3.0418816717      -18.3800580068  MEMB      35              0.0000000000
      4583        35  POPC      HB             -5.1656583035        3.3293211063      -18.0268171241  MEMB      35              0.0000000000
      4584        35  POPC      C2             -6.7651912989        4.1751431651      -16.6316909239  MEMB      35              0.0000000000
      4585        35  POPC      HS             -6.5632323879        5.1849411524      -17.0486336854  MEMB      35              0.0000000000
      4586        35  POPC      O21            -6.1262901005        4.0088831071      -15.4371453365  MEMB      35              0.0000000000
      4587        35  POPC      C21            -5.9591148067        5.1113352920      -14.6772869953  MEMB      35              0.0000000000
      4588        35  POPC      O22            -6.4747935619        6.1748266531      -14.8828437775  MEMB      35              0.0000000000
      4589        35  POPC      C22            -5.1019800877        4.6377931985      -13.4685701369  MEMB      35              0.0000000000
      4590        35  POPC      H2R            -4.0448608282        4.9129236652      -13.6713581668  MEMB      35              0.0000000000
      4591        35  POPC      H2S            -5.0506885728        3.5452013644      -13.2738053888  MEMB      35              0.0000000000
      4592        35  POPC      C3             -8.3231633974        4.0319883172      -16.4568753700  MEMB      35              0.0000000000
      4593        35  POPC      HX             -8.8843526916        4.2823057711      -17.3824718517  MEMB      35              0.0000000000
      4594        35  POPC      HY             -8.7395747805        4.7000372352      -15.6728897658  MEMB      35              0.0000000000
      4595        35  POPC      O31            -8.6507447749        2.6446137598      -16.1672751141  MEMB      35              0.0000000000
      4596        35  POPC      C31            -9.3436787770        2.3999901130      -15.0802676760  MEMB      35              0.0000000000
      4597        35  POPC      O32            -9.5683869185        3.1834639834      -14.1460694985  MEMB      35              0.0000000000
      4598        35  POPC      C32            -9.7443960000        0.9344222444      -15.0987171662  MEMB      35              0.0000000000
      4599        35  POPC      H2X            -8.8312240661        0.3100714552      -15.2017901465  MEMB      35              0.0000000000
      4600        35  POPC      H2Y           -10.4053096143        0.6928383387      -15.9584562061  MEMB      35              0.0000000000
      4601        35  POPC      C23            -5.4918308927        5.3741115062      -12.1954275783  MEMB      35              0.0000000000
      4602        35  POPC      H3R            -5.4564668496        6.4761275650      -12.3319249489  MEMB      35              0.0000000000
      4603        35  POPC      H3S            -4.6982112730        5.2500312129      -11.4279037049  MEMB      35              0.0000000000
      4604        35  POPC      C24            -6.9003909851        5.0160704373      -11.7134103291  MEMB      35              0.0000000000
      4605        35  POPC      H4R            -6.9464937985        3.9066449226      -11.6763903896  MEMB      35              0.0000000000
      4606        35  POPC      H4S            -7.7287408925        5.4123656145      -12.3387965509  MEMB      35              0.0000000000
      4607        35  POPC      C25            -7.2630560739        5.6181003639      -10.3820370102  MEMB      35              0.0000000000
      4608        35  POPC      H5R            -6.8769519916        6.6495126662      -10.2356328937  MEMB      35              0.0000000000
      4609        35  POPC      H5S            -6.7458760519        5.0517184696       -9.5782599765  MEMB      35              0.0000000000
      4610        35  POPC      C26            -8.7990825204        5.7514461144      -10.0500119409  MEMB      35              0.0000000000
      4611        35  POPC      H6R            -9.2178582485        6.2510449530      -10.9496507005  MEMB      35              0.0000000000
      4612        35  POPC      H6S            -8.9121138493        6.1596999158       -9.0229418529  MEMB      35              0.0000000000
      4613        35  POPC      C27            -9.5499378825        4.3821349326      -10.1042759588  MEMB      35              0.0000000000
      4614        35  POPC      H7R            -9.4406816616        4.0025836944      -11.1427001234  MEMB      35              0.0000000000
      4615        35  POPC      H7S           -10.5899432771        4.6117071140       -9.7880380100  MEMB      35              0.0000000000
      4616        35  POPC      C28            -9.0282260808        3.1504588498       -9.3086805086  MEMB      35              0.0000000000
      4617        35  POPC      H8R            -7.9923396640        2.9629161661       -9.6637698298  MEMB      35              0.0000000000
      4618        35  POPC      H8S            -9.7203319521        2.3366656796       -9.6137236648  MEMB      35              0.0000000000
      4619        35  POPC      C29            -9.1471111852        3.3790561271       -7.7744066864  MEMB      35              0.0000000000
      4620        35  POPC      H91            -8.2470761870        3.9450514794       -7.4922960534  MEMB      35              0.0000000000
      4621        35  POPC      C210          -10.0352360067        3.0627798937       -6.8522214126  MEMB      35              0.0000000000
      4622        35  POPC      H101           -9.8142702446        3.4260038635       -5.8377053666  MEMB      35              0.0000000000
      4623        35  POPC      C211          -11.2421808785        2.2774525904       -6.9730722132  MEMB      35              0.0000000000
      4624        35  POPC      H11R          -11.3638572819        1.8550600422       -7.9934156884  MEMB      35              0.0000000000
      4625        35  POPC      H11S          -12.1284533248        2.9124624018       -6.7595188118  MEMB      35              0.0000000000
      4626        35  POPC      C212          -11.2395317184        1.0895844380       -5.9018385905  MEMB      35              0.0000000000
      4627        35  POPC      H12R          -10.2461983706        0.5920659474       -5.8925910906  MEMB      35              0.0000000000
      4628        35  POPC      H12S          -11.9686266220        0.3542578713       -6.3043765739  MEMB      35              0.0000000000
      4629        35  POPC      C213          -11.7307851609        1.3909761259       -4.4914378125  MEMB      35              0.0000000000
      4630        35  POPC      H13R          -12.7314530080        1.8731599919       -4.5134226708  MEMB      35              0.0000000000
      4631        35  POPC      H13S          -10.9933917839        2.0487479399       -3.9835912176  MEMB      35              0.0000000000
      4632        35  POPC      C214          -11.9520998412        0.1266841423       -3.5865030590  MEMB      35              0.0000000000
      4633        35  POPC      H14R          -12.4438756789       -0.7071431554       -4.1316725788  MEMB      35              0.0000000000
      4634        35  POPC      H14S          -12.5902973579        0.3993377362       -2.7189284749  MEMB      35              0.0000000000
      4635        35  POPC      C215          -10.7209413566       -0.3842159190       -2.9302385783  MEMB      35              0.0000000000
      4636        35  POPC      H15R          -10.0278739958       -0.7957573311       -3.6948383984  MEMB      35              0.0000000000
      4637        35  POPC      H15S          -11.0745980403       -1.2607170505       -2.3462916726  MEMB      35              0.0000000000
      4638        35  POPC      C216           -9.9818492031        0.7214688084       -2.2581955042  MEMB      35              0.0000000000
      4639        35  POPC      H16R          -10.8252046616        1.2058771572       -1.7211468069  MEMB      35              0.0000000000
      4640        35  POPC      H16S           -9.3858354509        1.3382407636       -2.9643685504  MEMB      35              0.0000000000
      4641        35  POPC      C217           -8.9963293947        0.0502869113       -1.2512718127  MEMB      35              0.0000000000
      4642        35  POPC      H17R           -9.6572251843       -0.4614815014       -0.5194036419  MEMB      35              0.0000000000
      4643        35  POPC      H17S           -8.5259001166        0.9638683121       -0.8289137206  MEMB      35              0.0000000000
      4644        35  POPC      C218           -7.8389050965       -0.7014729126       -1.8975710910  MEMB      35              0.0000000000
      4645        35  POPC      H18R           -8.2233887479       -1.5594902063       -2.4894330567  MEMB      35              0.0000000000
      4646        35  POPC      H18S           -7.1352599793       -1.0290353161       -1.1026443993  MEMB      35              0.0000000000
      4647        35  POPC      H18T           -7.2521365493       -0.0961090258       -2.6211438251  MEMB      35              0.0000000000
      4648        35  POPC      C33           -10.4610009096        0.5390228520      -13.7489907677  MEMB      35              0.0000000000
      4649        35  POPC      H3X           -10.8824143174       -0.4613472474      -13.9856158545  MEMB      35              0.0000000000
      4650        35  POPC      H3Y           -11.3261854078        1.1912197497      -13.5031945503  MEMB      35              0.0000000000
      4651        35  POPC      C34            -9.4561954224        0.3940220569      -12.5783246276  MEMB      35              0.0000000000
      4652        35  POPC      H4X            -9.0001500990        1.3596244543      -12.2718028151  MEMB      35              0.0000000000
      4653        35  POPC      H4Y            -8.6607436490       -0.3185894702      -12.8845309367  MEMB      35              0.0000000000
      4654        35  POPC      C35           -10.1237139418       -0.2525320856      -11.3003954491  MEMB      35              0.0000000000
      4655        35  POPC      H5X           -10.7785467763       -1.0682887931      -11.6746366958  MEMB      35              0.0000000000
      4656        35  POPC      H5Y           -10.6710175546        0.4827123928      -10.6725454456  MEMB      35              0.0000000000
      4657        35  POPC      C36            -8.9930266733       -0.7907609296      -10.3623603528  MEMB      35              0.0000000000
      4658        35  POPC      H6X            -8.1175165318       -0.1084592081      -10.4099782074  MEMB      35              0.0000000000
      4659        35  POPC      H6Y            -8.7055606881       -1.8516874898      -10.5239737828  MEMB      35              0.0000000000
      4660        35  POPC      C37            -9.6281761562       -0.8073939648       -8.9312029163  MEMB      35              0.0000000000
      4661        35  POPC      H7X           -10.3818006113       -1.6236981312       -8.9268843430  MEMB      35              0.0000000000
      4662        35  POPC      H7Y           -10.0891191052        0.1508545866       -8.6093143593  MEMB      35              0.0000000000
      4663        35  POPC      C38            -8.6778016428       -1.2259512511       -7.7344739493  MEMB      35              0.0000000000
      4664        35  POPC      H8X            -8.0109218254       -2.0681541552       -8.0178228260  MEMB      35              0.0000000000
      4665        35  POPC      H8Y            -9.4369498820       -1.5893311636       -7.0092357790  MEMB      35              0.0000000000
      4666        35  POPC      C39            -7.7249099244       -0.1472749345       -7.1271440690  MEMB      35              0.0000000000
      4667        35  POPC      H9X            -8.2784596437        0.7791912527       -6.8633941823  MEMB      35              0.0000000000
      4668        35  POPC      H9Y            -7.0447112831        0.1563099240       -7.9514535158  MEMB      35              0.0000000000
      4669        35  POPC      C310           -6.9831138592       -0.5916640748       -5.8446652891  MEMB      35              0.0000000000
      4670        35  POPC      H10X           -7.6261436718       -1.1226728258       -5.1105918878  MEMB      35              0.0000000000
      4671        35  POPC      H10Y           -6.7269142629        0.3376986570       -5.2924261399  MEMB      35              0.0000000000
      4672        35  POPC      C311           -5.6971180319       -1.3231458781       -6.1010929017  MEMB      35              0.0000000000
      4673        35  POPC      H11X           -5.2042373882       -0.9899221456       -7.0393626425  MEMB      35              0.0000000000
      4674        35  POPC      H11Y           -5.9493527503       -2.4010950184       -6.1944940408  MEMB      35              0.0000000000
      4675        35  POPC      C312           -4.7324021281       -1.1563251139       -4.8365636488  MEMB      35              0.0000000000
      4676        35  POPC      H12X           -3.9305075025       -1.9242166273       -4.8769176045  MEMB      35              0.0000000000
      4677        35  POPC      H12Y           -5.3008190146       -1.4466211419       -3.9271944447  MEMB      35              0.0000000000
      4678        35  POPC      C313           -3.9507097783        0.1766906426       -4.7068355506  MEMB      35              0.0000000000
      4679        35  POPC      H13X           -4.6214462810        1.0553677669       -4.8180112901  MEMB      35              0.0000000000
      4680        35  POPC      H13Y           -3.2677539205        0.1146011790       -5.5809278233  MEMB      35              0.0000000000
      4681        35  POPC      C314           -3.2802290720        0.2845010998       -3.3126629120  MEMB      35              0.0000000000
      4682        35  POPC      H14X           -2.5380017561        1.1018435680       -3.4366421470  MEMB      35              0.0000000000
      4683        35  POPC      H14Y           -2.6708204387       -0.6199916147       -3.1009198456  MEMB      35              0.0000000000
      4684        35  POPC      C315           -4.1407954746        0.7193015554       -2.1160451996  MEMB      35              0.0000000000
      4685        35  POPC      H15X           -3.4809299603        1.1124523206       -1.3133432410  MEMB      35              0.0000000000
      4686        35  POPC      H15Y           -4.6877460952       -0.1561703518       -1.7052960241  MEMB      35              0.0000000000
      4687        35  POPC      C316           -5.0788753577        1.8585986429       -2.4062039458  MEMB      35              0.0000000000
      4688        35  POPC      H16X           -5.9205538215        1.5092255672       -3.0416855870  MEMB      35              0.0000000000
      4689        35  POPC      H16Y           -4.5454620585        2.7639223107       -2.7670086360  MEMB      35              0.0000000000
      4690        35  POPC      H16Z           -5.5078310062        2.1843151482       -1.4344899351  MEMB      35              0.0000000000
      4691        36  POPC      N               6.7169005133       -1.0237249657      -17.3793102198  MEMB      36              0.0000000000
      4692        36  POPC      C12             6.2073620528       -2.3282987775      -17.9385113577  MEMB      36              0.0000000000
      4693        36  POPC      H12A            5.3587172978       -2.1292935899      -18.5761623988  MEMB      36              0.0000000000
      4694        36  POPC      H12B            5.8999376453       -2.9360818147      -17.1003645040  MEMB      36              0.0000000000
      4695        36  POPC      C13             7.9458194089       -1.2466833953      -16.6195124133  MEMB      36              0.0000000000
      4696        36  POPC      H13A            8.7248459786       -1.7562825493      -17.1670763784  MEMB      36              0.0000000000
      4697        36  POPC      H13B            8.3206902369       -0.2887681732      -16.2904681617  MEMB      36              0.0000000000
      4698        36  POPC      H13C            7.7756658640       -1.8404381597      -15.7335648525  MEMB      36              0.0000000000
      4699        36  POPC      C14             6.9073450607       -0.0374777472      -18.5007852646  MEMB      36              0.0000000000
      4700        36  POPC      H14A            7.6447146211       -0.4065962972      -19.1982360994  MEMB      36              0.0000000000
      4701        36  POPC      H14B            5.9201766919        0.0529064913      -18.9294217984  MEMB      36              0.0000000000
      4702        36  POPC      H14C            7.2671374922        0.8840502587      -18.0675007494  MEMB      36              0.0000000000
      4703        36  POPC      C15             5.7743044688       -0.4645215870      -16.4030244961  MEMB      36              0.0000000000
      4704        36  POPC      H15A            5.6313844687       -1.1107126504      -15.5495546124  MEMB      36              0.0000000000
      4705        36  POPC      H15B            4.8816841760       -0.1774667959      -16.9389616134  MEMB      36              0.0000000000
      4706        36  POPC      H15C            6.1199368496        0.4611787134      -15.9671150914  MEMB      36              0.0000000000
      4707        36  POPC      C11             7.2052310867       -3.0958823093      -18.7444569193  MEMB      36              0.0000000000
      4708        36  POPC      H11A            6.7954595011       -4.0574275464      -19.1210722174  MEMB      36              0.0000000000
      4709        36  POPC      H11B            8.1499169638       -3.3367982874      -18.2116819976  MEMB      36              0.0000000000
      4710        36  POPC      P               8.8686152136       -2.7370071490      -20.7723717000  MEMB      36              0.0000000000
      4711        36  POPC      O13             9.0255157609       -1.7009721460      -21.8146929351  MEMB      36              0.0000000000
      4712        36  POPC      O14             8.8770195073       -4.1668976058      -21.1570864497  MEMB      36              0.0000000000
      4713        36  POPC      O12             7.5289158132       -2.3715173767      -19.9399591391  MEMB      36              0.0000000000
      4714        36  POPC      O11             9.9844196175       -2.5678537221      -19.7302891430  MEMB      36              0.0000000000
      4715        36  POPC      C1             10.5183699915       -1.2390960181      -19.5620150239  MEMB      36              0.0000000000
      4716        36  POPC      HA              9.6687006126       -0.6163707622      -19.2090328707  MEMB      36              0.0000000000
      4717        36  POPC      HB             10.8561304498       -0.8279564968      -20.5373113898  MEMB      36              0.0000000000
      4718        36  POPC      C2             11.7518385338       -1.2846343933      -18.5746632157  MEMB      36              0.0000000000
      4719        36  POPC      HS             12.4980612313       -1.9692052417      -19.0316482456  MEMB      36              0.0000000000
      4720        36  POPC      O21            11.3540590306       -1.8278056886      -17.3285818181  MEMB      36              0.0000000000
      4721        36  POPC      C21            11.2655288749       -3.2013969647      -17.3215442809  MEMB      36              0.0000000000
      4722        36  POPC      O22            11.6968971874       -3.8932586456      -18.1654551731  MEMB      36              0.0000000000
      4723        36  POPC      C22            10.7034409127       -3.6789075985      -15.9489653219  MEMB      36              0.0000000000
      4724        36  POPC      H2R            10.7558170466       -4.7746723725      -16.1246844053  MEMB      36              0.0000000000
      4725        36  POPC      H2S             9.6750058293       -3.2875897290      -15.7956280535  MEMB      36              0.0000000000
      4726        36  POPC      C3             12.2309927234        0.1694219270      -18.3753299793  MEMB      36              0.0000000000
      4727        36  POPC      HX             12.5667138336        0.6177839722      -19.3348007590  MEMB      36              0.0000000000
      4728        36  POPC      HY             13.0670601953        0.0662473906      -17.6509907642  MEMB      36              0.0000000000
      4729        36  POPC      O31            11.1865533581        1.0305089137      -17.8676692874  MEMB      36              0.0000000000
      4730        36  POPC      C31            11.3165280110        1.4890178283      -16.6338033559  MEMB      36              0.0000000000
      4731        36  POPC      O32            12.2718444951        1.3433806015      -15.8881986990  MEMB      36              0.0000000000
      4732        36  POPC      C32            10.0460072506        2.2216971141      -16.2800662932  MEMB      36              0.0000000000
      4733        36  POPC      H2X             9.1124579113        1.7168433572      -16.6085920505  MEMB      36              0.0000000000
      4734        36  POPC      H2Y             9.9622200331        3.1694003887      -16.8537903177  MEMB      36              0.0000000000
      4735        36  POPC      C23            11.7594402419       -3.2895083286      -14.8607148782  MEMB      36              0.0000000000
      4736        36  POPC      H3R            11.5416367261       -2.2492099199      -14.5372002507  MEMB      36              0.0000000000
      4737        36  POPC      H3S            12.7470440818       -3.3843985120      -15.3606705626  MEMB      36              0.0000000000
      4738        36  POPC      C24            11.7352153437       -4.2597405342      -13.6560316846  MEMB      36              0.0000000000
      4739        36  POPC      H4R            12.5333192301       -4.0084233057      -12.9251485413  MEMB      36              0.0000000000
      4740        36  POPC      H4S            11.9178618173       -5.2518366205      -14.1215490795  MEMB      36              0.0000000000
      4741        36  POPC      C25            10.4619931643       -4.3528395261      -12.8057188156  MEMB      36              0.0000000000
      4742        36  POPC      H5R            10.3685195931       -5.3125533953      -12.2538733933  MEMB      36              0.0000000000
      4743        36  POPC      H5S             9.5676906181       -4.1545112105      -13.4343760236  MEMB      36              0.0000000000
      4744        36  POPC      C26            10.5240165017       -3.2638558319      -11.6579977452  MEMB      36              0.0000000000
      4745        36  POPC      H6R            10.4346634911       -2.2231975419      -12.0366367413  MEMB      36              0.0000000000
      4746        36  POPC      H6S            11.5448392233       -3.3532745566      -11.2287592023  MEMB      36              0.0000000000
      4747        36  POPC      C27             9.4365013814       -3.5337178301      -10.5573904473  MEMB      36              0.0000000000
      4748        36  POPC      H7R             9.0173381543       -4.5622301934      -10.5293608498  MEMB      36              0.0000000000
      4749        36  POPC      H7S             8.4913822776       -3.0681138062      -10.9099287239  MEMB      36              0.0000000000
      4750        36  POPC      C28             9.6916373053       -3.2257776767       -9.0904056693  MEMB      36              0.0000000000
      4751        36  POPC      H8R             8.7215376462       -3.1496933492       -8.5542721960  MEMB      36              0.0000000000
      4752        36  POPC      H8S            10.1351260738       -2.2073668690       -9.0685369405  MEMB      36              0.0000000000
      4753        36  POPC      C29            10.5398981555       -4.2342757078       -8.3533867637  MEMB      36              0.0000000000
      4754        36  POPC      H91            10.1013630065       -5.2405858221       -8.2824856223  MEMB      36              0.0000000000
      4755        36  POPC      C210           11.7726542743       -3.9929274344       -7.7775250331  MEMB      36              0.0000000000
      4756        36  POPC      H101           12.2480958200       -4.8352780560       -7.2536916197  MEMB      36              0.0000000000
      4757        36  POPC      C211           12.4888282058       -2.7361645396       -7.8080794951  MEMB      36              0.0000000000
      4758        36  POPC      H11R           12.5704362503       -2.3757696174       -8.8558277216  MEMB      36              0.0000000000
      4759        36  POPC      H11S           13.5579868926       -2.7932803765       -7.5115007493  MEMB      36              0.0000000000
      4760        36  POPC      C212           11.8737804897       -1.5379895144       -7.0120693378  MEMB      36              0.0000000000
      4761        36  POPC      H12R           10.9058228680       -1.2794885523       -7.4922319041  MEMB      36              0.0000000000
      4762        36  POPC      H12S           12.6517853888       -0.7512963787       -7.1127830256  MEMB      36              0.0000000000
      4763        36  POPC      C213           11.6642068133       -1.7178874721       -5.4658614301  MEMB      36              0.0000000000
      4764        36  POPC      H13R           11.0668420207       -2.6375807032       -5.2879827007  MEMB      36              0.0000000000
      4765        36  POPC      H13S           11.0476681352       -0.8278345354       -5.2168492360  MEMB      36              0.0000000000
      4766        36  POPC      C214           12.9291545201       -1.8756254419       -4.5537047429  MEMB      36              0.0000000000
      4767        36  POPC      H14R           13.5130382688       -0.9329197239       -4.6223078474  MEMB      36              0.0000000000
      4768        36  POPC      H14S           13.5985259967       -2.6904727959       -4.9033994260  MEMB      36              0.0000000000
      4769        36  POPC      C215           12.5982848059       -2.2546561272       -3.1101759550  MEMB      36              0.0000000000
      4770        36  POPC      H15R           13.5638046700       -2.5493328816       -2.6462167461  MEMB      36              0.0000000000
      4771        36  POPC      H15S           11.9664954797       -3.1592255234       -3.2402431021  MEMB      36              0.0000000000
      4772        36  POPC      C216           11.8221086233       -1.3663771484       -2.2403327999  MEMB      36              0.0000000000
      4773        36  POPC      H16R           12.0723950786       -1.6286160452       -1.1901382621  MEMB      36              0.0000000000
      4774        36  POPC      H16S           10.7469842890       -1.6412040593       -2.2941781010  MEMB      36              0.0000000000
      4775        36  POPC      C217           11.9668401338        0.0932721165       -2.5865463404  MEMB      36              0.0000000000
      4776        36  POPC      H17R           11.5261692120        0.2594321109       -3.5927866609  MEMB      36              0.0000000000
      4777        36  POPC      H17S           13.0462341939        0.3454975435       -2.5116385191  MEMB      36              0.0000000000
      4778        36  POPC      C218           11.2236187402        1.0008692229       -1.5940683358  MEMB      36              0.0000000000
      4779        36  POPC      H18R           11.2212426934        2.0213303797       -2.0333575708  MEMB      36              0.0000000000
      4780        36  POPC      H18S           11.6358065466        1.0898451598       -0.5662039766  MEMB      36              0.0000000000
      4781        36  POPC      H18T           10.1860855561        0.6733949978       -1.3691097399  MEMB      36              0.0000000000
      4782        36  POPC      C33             9.8691307270        2.4521902860      -14.7606844678  MEMB      36              0.0000000000
      4783        36  POPC      H3X             9.0691239168        3.2144748140      -14.6456510083  MEMB      36              0.0000000000
      4784        36  POPC      H3Y            10.8194048102        2.7534183474      -14.2702133737  MEMB      36              0.0000000000
      4785        36  POPC      C34             9.3175392564        1.2572143276      -13.9271358978  MEMB      36              0.0000000000
      4786        36  POPC      H4X             9.9727701918        0.3670408261      -14.0393166582  MEMB      36              0.0000000000
      4787        36  POPC      H4Y             8.2876907540        1.1299033442      -14.3240298173  MEMB      36              0.0000000000
      4788        36  POPC      C35             9.1541882299        1.5587758849      -12.4495932329  MEMB      36              0.0000000000
      4789        36  POPC      H5X             8.6535061445        2.5401602884      -12.3063353147  MEMB      36              0.0000000000
      4790        36  POPC      H5Y            10.1739726544        1.6767471826      -12.0248071272  MEMB      36              0.0000000000
      4791        36  POPC      C36             8.3788416169        0.4953677304      -11.6730848796  MEMB      36              0.0000000000
      4792        36  POPC      H6X             9.0182484047       -0.0893046343      -10.9776440958  MEMB      36              0.0000000000
      4793        36  POPC      H6Y             7.9826922624       -0.2593906164      -12.3856340973  MEMB      36              0.0000000000
      4794        36  POPC      C37             7.2069133176        1.1216633705      -10.7897063800  MEMB      36              0.0000000000
      4795        36  POPC      H7X             6.7073516011        0.2431426347      -10.3282294269  MEMB      36              0.0000000000
      4796        36  POPC      H7Y             6.4231763564        1.5402580048      -11.4566812394  MEMB      36              0.0000000000
      4797        36  POPC      C38             7.6242865159        2.0252936181       -9.6293358953  MEMB      36              0.0000000000
      4798        36  POPC      H8X             6.7887437073        2.4199441523       -9.0125381425  MEMB      36              0.0000000000
      4799        36  POPC      H8Y             8.1641690302        2.9527990039       -9.9167069157  MEMB      36              0.0000000000
      4800        36  POPC      C39             8.5264124020        1.3493127048       -8.5495602225  MEMB      36              0.0000000000
      4801        36  POPC      H9X             8.9069971333        2.2669078476       -8.0520712251  MEMB      36              0.0000000000
      4802        36  POPC      H9Y             9.3832631705        0.7898637233       -8.9821623006  MEMB      36              0.0000000000
      4803        36  POPC      C310            7.7521196858        0.4630830061       -7.6215750041  MEMB      36              0.0000000000
      4804        36  POPC      H10X            7.5729980090       -0.5040850396       -8.1381237484  MEMB      36              0.0000000000
      4805        36  POPC      H10Y            6.7261246102        0.8589014605       -7.4635152997  MEMB      36              0.0000000000
      4806        36  POPC      C311            8.3390373094        0.1654565192       -6.2830806241  MEMB      36              0.0000000000
      4807        36  POPC      H11X            8.4760052123        1.1289281825       -5.7470921639  MEMB      36              0.0000000000
      4808        36  POPC      H11Y            9.3689320302       -0.1234158319       -6.5833978621  MEMB      36              0.0000000000
      4809        36  POPC      C312            7.5780174875       -0.9438471084       -5.4683016951  MEMB      36              0.0000000000
      4810        36  POPC      H12X            7.7706394879       -1.9520067160       -5.8935451912  MEMB      36              0.0000000000
      4811        36  POPC      H12Y            6.4831084415       -0.7556827159       -5.4588585544  MEMB      36              0.0000000000
      4812        36  POPC      C313            7.9277767914       -0.8716565352       -3.9999920257  MEMB      36              0.0000000000
      4813        36  POPC      H13X            8.1033847939        0.2000369740       -3.7655649802  MEMB      36              0.0000000000
      4814        36  POPC      H13Y            8.9210548769       -1.3424589429       -3.8385463582  MEMB      36              0.0000000000
      4815        36  POPC      C314            6.9102387233       -1.3887382155       -2.9735061473  MEMB      36              0.0000000000
      4816        36  POPC      H14X            7.2379191021       -1.3237575588       -1.9139190999  MEMB      36              0.0000000000
      4817        36  POPC      H14Y            6.7440848671       -2.4766977647       -3.1253547421  MEMB      36              0.0000000000
      4818        36  POPC      C315            5.5022381301       -0.7779676842       -3.0528411878  MEMB      36              0.0000000000
      4819        36  POPC      H15X            4.9832652929       -0.8389051232       -4.0332878844  MEMB      36              0.0000000000
      4820        36  POPC      H15Y            5.6720243712        0.3023845416       -2.8570534276  MEMB      36              0.0000000000
      4821        36  POPC      C316            4.4668213370       -1.4161107476       -2.0369363657  MEMB      36              0.0000000000
      4822        36  POPC      H16X            3.5217194327       -0.8338237952       -2.0821678506  MEMB      36              0.0000000000
      4823        36  POPC      H16Y            4.8624426964       -1.4526716514       -0.9994069087  MEMB      36              0.0000000000
      4824        36  POPC      H16Z            4.3194554002       -2.4941027015       -2.2617430273  MEMB      36              0.0000000000
      4825        37  POPC      N              -6.5492732101        9.6296992597      -20.6184866104  MEMB      37              0.0000000000
      4826        37  POPC      C12            -7.2567632706        8.2973785806      -20.1949105537  MEMB      37              0.0000000000
      4827        37  POPC      H12A           -6.4714910567        7.5795777751      -20.3806781745  MEMB      37              0.0000000000
      4828        37  POPC      H12B           -8.0994336969        8.1641853252      -20.8571539630  MEMB      37              0.0000000000
      4829        37  POPC      C13            -6.3546841823        9.6167945265      -22.1037560231  MEMB      37              0.0000000000
      4830        37  POPC      H13A           -5.5632598507        8.9591710834      -22.4317484199  MEMB      37              0.0000000000
      4831        37  POPC      H13B           -7.2022494247        9.2002454181      -22.6277028671  MEMB      37              0.0000000000
      4832        37  POPC      H13C           -6.1544516677       10.5836084890      -22.5414518520  MEMB      37              0.0000000000
      4833        37  POPC      C14            -7.5430203579       10.7912939185      -20.3209496386  MEMB      37              0.0000000000
      4834        37  POPC      H14A           -8.3791360318       10.7300252125      -21.0017998093  MEMB      37              0.0000000000
      4835        37  POPC      H14B           -7.8989312433       10.6481988387      -19.3113699376  MEMB      37              0.0000000000
      4836        37  POPC      H14C           -7.1141025833       11.7688359615      -20.4847824377  MEMB      37              0.0000000000
      4837        37  POPC      C15            -5.2907059287        9.9245596909      -19.9663120208  MEMB      37              0.0000000000
      4838        37  POPC      H15A           -4.8120085710       10.7423658236      -20.4844258692  MEMB      37              0.0000000000
      4839        37  POPC      H15B           -4.6668276309        9.0529359976      -19.8342214744  MEMB      37              0.0000000000
      4840        37  POPC      H15C           -5.5545976226       10.2698746812      -18.9776165377  MEMB      37              0.0000000000
      4841        37  POPC      C11            -7.7674642917        8.1976728125      -18.6791087299  MEMB      37              0.0000000000
      4842        37  POPC      H11A           -8.2961615067        7.2384660452      -18.4927684067  MEMB      37              0.0000000000
      4843        37  POPC      H11B           -8.4857174433        9.0346170177      -18.5451013367  MEMB      37              0.0000000000
      4844        37  POPC      P              -5.7247504477        7.3555592695      -17.5038096583  MEMB      37              0.0000000000
      4845        37  POPC      O13            -4.3847648842        7.8375464821      -17.8828170929  MEMB      37              0.0000000000
      4846        37  POPC      O14            -6.2318256727        6.1033436206      -18.1065403539  MEMB      37              0.0000000000
      4847        37  POPC      O12            -6.7500259491        8.5272285537      -17.7509507513  MEMB      37              0.0000000000
      4848        37  POPC      O11            -5.9488656397        7.2761753158      -15.8723585675  MEMB      37              0.0000000000
      4849        37  POPC      C1             -5.7056380242        8.4851039398      -15.1847184213  MEMB      37              0.0000000000
      4850        37  POPC      HA             -6.2229840042        8.4145716660      -14.2040556404  MEMB      37              0.0000000000
      4851        37  POPC      HB             -6.2670713804        9.3290009953      -15.6396374787  MEMB      37              0.0000000000
      4852        37  POPC      C2             -4.2200850046        8.8589244943      -14.9447939610  MEMB      37              0.0000000000
      4853        37  POPC      HS             -3.6773864036        8.7516510883      -15.9082729455  MEMB      37              0.0000000000
      4854        37  POPC      O21            -3.6066934945        7.9933219024      -13.9582371674  MEMB      37              0.0000000000
      4855        37  POPC      C21            -2.4027803396        7.4434819114      -14.2346604528  MEMB      37              0.0000000000
      4856        37  POPC      O22            -1.6869286126        7.5964065936      -15.1776334939  MEMB      37              0.0000000000
      4857        37  POPC      C22            -2.0339792516        6.5498825112      -13.0624528781  MEMB      37              0.0000000000
      4858        37  POPC      H2R            -2.2264625918        5.4672259491      -13.2209630286  MEMB      37              0.0000000000
      4859        37  POPC      H2S            -2.6331509863        6.8730518860      -12.1844574143  MEMB      37              0.0000000000
      4860        37  POPC      C3             -4.0576876494       10.3468009082      -14.5512749958  MEMB      37              0.0000000000
      4861        37  POPC      HX             -4.5629385594       10.8680540027      -15.3923086394  MEMB      37              0.0000000000
      4862        37  POPC      HY             -3.0438206087       10.8009587928      -14.5396380898  MEMB      37              0.0000000000
      4863        37  POPC      O31            -4.7856875877       10.6962857287      -13.3444210327  MEMB      37              0.0000000000
      4864        37  POPC      C31            -4.1164765958       10.8536075278      -12.2149436860  MEMB      37              0.0000000000
      4865        37  POPC      O32            -2.8983677124       10.8387665491      -12.0066774619  MEMB      37              0.0000000000
      4866        37  POPC      C32            -5.1714286079       11.0478498250      -11.0855017583  MEMB      37              0.0000000000
      4867        37  POPC      H2X            -5.7736616327       11.9614073228      -11.2779832953  MEMB      37              0.0000000000
      4868        37  POPC      H2Y            -4.5851212612       11.2534935829      -10.1644836991  MEMB      37              0.0000000000
      4869        37  POPC      C23            -0.6032354003        6.8809069617      -12.8009149418  MEMB      37              0.0000000000
      4870        37  POPC      H3R             0.0642694917        6.8482784422      -13.6884359012  MEMB      37              0.0000000000
      4871        37  POPC      H3S            -0.1858097981        6.1447852691      -12.0810532072  MEMB      37              0.0000000000
      4872        37  POPC      C24            -0.3957417687        8.2063013643      -12.0434420045  MEMB      37              0.0000000000
      4873        37  POPC      H4R            -1.1078012991        8.9415901992      -12.4754632933  MEMB      37              0.0000000000
      4874        37  POPC      H4S             0.5490464648        8.7559900200      -12.2422868515  MEMB      37              0.0000000000
      4875        37  POPC      C25            -0.5335627195        8.0849475995      -10.5095971640  MEMB      37              0.0000000000
      4876        37  POPC      H5R             0.2061069561        7.3878111953      -10.0610321434  MEMB      37              0.0000000000
      4877        37  POPC      H5S            -1.5385730091        7.6345889887      -10.3631290033  MEMB      37              0.0000000000
      4878        37  POPC      C26            -0.4756506747        9.4703508451       -9.8519650428  MEMB      37              0.0000000000
      4879        37  POPC      H6R            -1.3948137878       10.0643264002      -10.0434156520  MEMB      37              0.0000000000
      4880        37  POPC      H6S             0.2767025367       10.0317709890      -10.4461817340  MEMB      37              0.0000000000
      4881        37  POPC      C27            -0.1962819016        9.3340184812       -8.2948795373  MEMB      37              0.0000000000
      4882        37  POPC      H7R             0.8199617960        8.9123326923       -8.1407652905  MEMB      37              0.0000000000
      4883        37  POPC      H7S            -0.9783689670        8.6770615329       -7.8577659279  MEMB      37              0.0000000000
      4884        37  POPC      C28            -0.3006091548       10.6480066856       -7.5914051893  MEMB      37              0.0000000000
      4885        37  POPC      H8R             0.1722025035       11.3664295622       -8.2947103113  MEMB      37              0.0000000000
      4886        37  POPC      H8S             0.3906315874       10.7254538474       -6.7250857280  MEMB      37              0.0000000000
      4887        37  POPC      C29            -1.6233099084       11.2813160668       -7.2444381756  MEMB      37              0.0000000000
      4888        37  POPC      H91            -2.1025512122       11.8782140860       -8.0343999136  MEMB      37              0.0000000000
      4889        37  POPC      C210           -2.2042809055       11.0738496547       -6.0707547013  MEMB      37              0.0000000000
      4890        37  POPC      H101           -3.1618318147       11.5583138642       -5.8291132839  MEMB      37              0.0000000000
      4891        37  POPC      C211           -1.6741254686       10.2255984047       -4.8698294030  MEMB      37              0.0000000000
      4892        37  POPC      H11R           -1.6178796222       10.7415216810       -3.8874949905  MEMB      37              0.0000000000
      4893        37  POPC      H11S           -0.6137376902        9.9210925968       -5.0008828567  MEMB      37              0.0000000000
      4894        37  POPC      C212           -2.4062440928        8.8585118603       -4.6519913135  MEMB      37              0.0000000000
      4895        37  POPC      H12R           -1.6752545637        8.0975943713       -4.3041700521  MEMB      37              0.0000000000
      4896        37  POPC      H12S           -2.7050328758        8.3889677683       -5.6135394999  MEMB      37              0.0000000000
      4897        37  POPC      C213           -3.5261661635        9.0517486896       -3.6830885453  MEMB      37              0.0000000000
      4898        37  POPC      H13R           -3.9643036286        8.0309133823       -3.6672254881  MEMB      37              0.0000000000
      4899        37  POPC      H13S           -4.2223519681        9.7075865171       -4.2483518936  MEMB      37              0.0000000000
      4900        37  POPC      C214           -3.2036254159        9.5263691725       -2.3104396084  MEMB      37              0.0000000000
      4901        37  POPC      H14R           -4.0301845070        9.2575122655       -1.6184593050  MEMB      37              0.0000000000
      4902        37  POPC      H14S           -3.3436883263       10.6159328942       -2.1444455783  MEMB      37              0.0000000000
      4903        37  POPC      C215           -1.8194877606        9.0489395381       -1.7631461970  MEMB      37              0.0000000000
      4904        37  POPC      H15R           -0.9892200820        9.3611406049       -2.4321054160  MEMB      37              0.0000000000
      4905        37  POPC      H15S           -1.6976431840        7.9539901270       -1.6197571962  MEMB      37              0.0000000000
      4906        37  POPC      C216           -1.5180414192        9.7925379284       -0.4602016935  MEMB      37              0.0000000000
      4907        37  POPC      H16R           -0.9155384659        9.1357200891        0.2030504594  MEMB      37              0.0000000000
      4908        37  POPC      H16S           -2.4625342170       10.0480472799        0.0660785364  MEMB      37              0.0000000000
      4909        37  POPC      C217           -0.6136534458       11.0872627830       -0.7372413538  MEMB      37              0.0000000000
      4910        37  POPC      H17R           -0.9662848721       11.5925716305       -1.6617047882  MEMB      37              0.0000000000
      4911        37  POPC      H17S            0.3838295782       10.7713617596       -1.1108109815  MEMB      37              0.0000000000
      4912        37  POPC      C218           -0.3169346887       12.0304496071        0.4437008460  MEMB      37              0.0000000000
      4913        37  POPC      H18R            0.7095654168       12.4409492585        0.3336598418  MEMB      37              0.0000000000
      4914        37  POPC      H18S           -0.3674750802       11.5791882944        1.4576682891  MEMB      37              0.0000000000
      4915        37  POPC      H18T           -1.0661197336       12.8388454436        0.3039175365  MEMB      37              0.0000000000
      4916        37  POPC      C33            -6.0209374964        9.8241162799      -10.9796635208  MEMB      37              0.0000000000
      4917        37  POPC      H3X            -6.4567974751        9.7133250909      -11.9955729527  MEMB      37              0.0000000000
      4918        37  POPC      H3Y            -6.9847985932       10.0710485902      -10.4853788894  MEMB      37              0.0000000000
      4919        37  POPC      C34            -5.4175639537        8.4479482397      -10.5759280301  MEMB      37              0.0000000000
      4920        37  POPC      H4X            -4.9601357178        7.9406591046      -11.4521345927  MEMB      37              0.0000000000
      4921        37  POPC      H4Y            -6.3233663559        7.8517258650      -10.3343459492  MEMB      37              0.0000000000
      4922        37  POPC      C35            -4.3597445933        8.4167716730       -9.4796166997  MEMB      37              0.0000000000
      4923        37  POPC      H5X            -3.5825401589        9.1957023060       -9.6330484443  MEMB      37              0.0000000000
      4924        37  POPC      H5Y            -3.8192551477        7.4472466578       -9.5266648910  MEMB      37              0.0000000000
      4925        37  POPC      C36            -4.9281164059        8.4801094707       -8.0499279360  MEMB      37              0.0000000000
      4926        37  POPC      H6X            -4.1568318074        8.7660223381       -7.3031383708  MEMB      37              0.0000000000
      4927        37  POPC      H6Y            -5.2469808738        7.4416212210       -7.8171430799  MEMB      37              0.0000000000
      4928        37  POPC      C37            -6.0910766526        9.4856068169       -7.6907847604  MEMB      37              0.0000000000
      4929        37  POPC      H7X            -6.8342315302        9.2078333143       -8.4685273387  MEMB      37              0.0000000000
      4930        37  POPC      H7Y            -5.7990292958       10.5435311894       -7.8634847115  MEMB      37              0.0000000000
      4931        37  POPC      C38            -6.6564298135        9.2290506236       -6.2740888416  MEMB      37              0.0000000000
      4932        37  POPC      H8X            -5.7813349312        9.0524904407       -5.6127597907  MEMB      37              0.0000000000
      4933        37  POPC      H8Y            -7.2315383973        8.2788453818       -6.2479864645  MEMB      37              0.0000000000
      4934        37  POPC      C39            -7.5937477805       10.3201363946       -5.7288579478  MEMB      37              0.0000000000
      4935        37  POPC      H9X            -8.6147781762       10.1221628794       -6.1195292833  MEMB      37              0.0000000000
      4936        37  POPC      H9Y            -7.3114083030       11.3344860955       -6.0834003424  MEMB      37              0.0000000000
      4937        37  POPC      C310           -7.7843008272       10.4195700444       -4.2346791951  MEMB      37              0.0000000000
      4938        37  POPC      H10X           -8.6774341001       11.0735619184       -4.1401863500  MEMB      37              0.0000000000
      4939        37  POPC      H10Y           -6.8990609900       10.9729446405       -3.8546167964  MEMB      37              0.0000000000
      4940        37  POPC      C311           -7.9254530835        9.0681349468       -3.5507653424  MEMB      37              0.0000000000
      4941        37  POPC      H11X           -6.9635063239        8.5366339270       -3.3880196744  MEMB      37              0.0000000000
      4942        37  POPC      H11Y           -8.6809673350        8.3316836225       -3.8988441073  MEMB      37              0.0000000000
      4943        37  POPC      C312           -8.4635723638        9.2886018278       -2.0945959557  MEMB      37              0.0000000000
      4944        37  POPC      H12X           -9.3426300884        9.9673606191       -2.1240053044  MEMB      37              0.0000000000
      4945        37  POPC      H12Y           -7.6869418955        9.8563074055       -1.5388294836  MEMB      37              0.0000000000
      4946        37  POPC      C313           -9.0104841295        7.9835773460       -1.3980637202  MEMB      37              0.0000000000
      4947        37  POPC      H13X           -9.7861676453        7.4634153686       -1.9997867255  MEMB      37              0.0000000000
      4948        37  POPC      H13Y           -9.4832880576        8.2916400829       -0.4410510420  MEMB      37              0.0000000000
      4949        37  POPC      C314           -8.0270264763        6.8592255589       -1.0860099203  MEMB      37              0.0000000000
      4950        37  POPC      H14X           -7.4365578506        6.6395559238       -2.0011127853  MEMB      37              0.0000000000
      4951        37  POPC      H14Y           -8.4848622596        5.8833831645       -0.8168650503  MEMB      37              0.0000000000
      4952        37  POPC      C315           -6.8339027351        7.2447266799       -0.2485137075  MEMB      37              0.0000000000
      4953        37  POPC      H15X           -7.0419112931        7.0098075686        0.8172554333  MEMB      37              0.0000000000
      4954        37  POPC      H15Y           -6.5892058921        8.3191446046       -0.3901854958  MEMB      37              0.0000000000
      4955        37  POPC      C316           -5.4707358700        6.6514674024       -0.5928610178  MEMB      37              0.0000000000
      4956        37  POPC      H16X           -5.3290264778        6.8761843353       -1.6716310566  MEMB      37              0.0000000000
      4957        37  POPC      H16Y           -5.4696737965        5.5442295446       -0.5015129129  MEMB      37              0.0000000000
      4958        37  POPC      H16Z           -4.7178139829        7.1867659119        0.0242958796  MEMB      37              0.0000000000
      4959        38  POPC      N               8.1591771625        4.5979281641      -19.1671547563  MEMB      38              0.0000000000
      4960        38  POPC      C12             9.5119841832        4.8627240336      -19.7001784520  MEMB      38              0.0000000000
      4961        38  POPC      H12A            9.7654595278        4.3083756971      -20.5917209824  MEMB      38              0.0000000000
      4962        38  POPC      H12B           10.1709177810        4.5606298247      -18.8995876051  MEMB      38              0.0000000000
      4963        38  POPC      C13             8.0704139268        4.9339266370      -17.6516232541  MEMB      38              0.0000000000
      4964        38  POPC      H13A            7.1204594211        4.5872446757      -17.2724161014  MEMB      38              0.0000000000
      4965        38  POPC      H13B            8.8758715521        4.5841085333      -17.0229219157  MEMB      38              0.0000000000
      4966        38  POPC      H13C            8.0365615047        6.0127806106      -17.6880642003  MEMB      38              0.0000000000
      4967        38  POPC      C14             7.1378583111        5.2971293470      -19.9302325598  MEMB      38              0.0000000000
      4968        38  POPC      H14A            7.2853786605        6.3197272004      -19.6156989292  MEMB      38              0.0000000000
      4969        38  POPC      H14B            7.4252682729        5.2087891630      -20.9675326326  MEMB      38              0.0000000000
      4970        38  POPC      H14C            6.1600467217        4.9114458139      -19.6821749210  MEMB      38              0.0000000000
      4971        38  POPC      C15             7.9472958872        3.0928782001      -19.4313641907  MEMB      38              0.0000000000
      4972        38  POPC      H15A            8.0278406881        2.8953552952      -20.4900885376  MEMB      38              0.0000000000
      4973        38  POPC      H15B            6.9083046065        2.9451492843      -19.1762703687  MEMB      38              0.0000000000
      4974        38  POPC      H15C            8.6483872270        2.4550503718      -18.9136320252  MEMB      38              0.0000000000
      4975        38  POPC      C11             9.7095640103        6.3126563017      -20.0647210060  MEMB      38              0.0000000000
      4976        38  POPC      H11A            8.9642057597        6.5626602051      -20.8497433563  MEMB      38              0.0000000000
      4977        38  POPC      H11B           10.6710384001        6.5572705878      -20.5647727972  MEMB      38              0.0000000000
      4978        38  POPC      P              10.2838653887        8.5103674226      -18.6503023612  MEMB      38              0.0000000000
      4979        38  POPC      O13            10.1278822059        9.3243683748      -19.8685836331  MEMB      38              0.0000000000
      4980        38  POPC      O14            11.6124969346        8.2499786266      -18.0942789996  MEMB      38              0.0000000000
      4981        38  POPC      O12             9.5689278355        7.1066427506      -18.8912939012  MEMB      38              0.0000000000
      4982        38  POPC      O11             9.3206341150        9.1762989392      -17.5502668891  MEMB      38              0.0000000000
      4983        38  POPC      C1              7.9397174244        8.7796124657      -17.3717259619  MEMB      38              0.0000000000
      4984        38  POPC      HA              7.9374872460        7.6867177777      -17.1719829624  MEMB      38              0.0000000000
      4985        38  POPC      HB              7.3820077437        8.9483761104      -18.3176643768  MEMB      38              0.0000000000
      4986        38  POPC      C2              7.2873184069        9.6175020199      -16.2453034256  MEMB      38              0.0000000000
      4987        38  POPC      HS              7.1444652233       10.6713979676      -16.5665776540  MEMB      38              0.0000000000
      4988        38  POPC      O21             8.1962535317        9.4786523447      -15.1248315685  MEMB      38              0.0000000000
      4989        38  POPC      C21             8.0072643433       10.2611104083      -14.1096473419  MEMB      38              0.0000000000
      4990        38  POPC      O22             6.9865420834       10.9124197527      -13.9566607913  MEMB      38              0.0000000000
      4991        38  POPC      C22             9.2686180275       10.2327573002      -13.2085599906  MEMB      38              0.0000000000
      4992        38  POPC      H2R             9.4284945908        9.1388965401      -13.0979760223  MEMB      38              0.0000000000
      4993        38  POPC      H2S             8.9250261112       10.6298465400      -12.2294858638  MEMB      38              0.0000000000
      4994        38  POPC      C3              5.8756870145        9.1407087508      -15.9863920414  MEMB      38              0.0000000000
      4995        38  POPC      HX              5.4049376194        9.0016033642      -16.9830695331  MEMB      38              0.0000000000
      4996        38  POPC      HY              5.2983849323        9.8389500343      -15.3433503518  MEMB      38              0.0000000000
      4997        38  POPC      O31             5.9057391152        7.8055241128      -15.4522105187  MEMB      38              0.0000000000
      4998        38  POPC      C31             4.9661662902        7.2629607407      -14.6847204940  MEMB      38              0.0000000000
      4999        38  POPC      O32             3.8762461724        7.7613967565      -14.4946822741  MEMB      38              0.0000000000
      5000        38  POPC      C32             5.4069497026        5.9137659680      -14.0508221888  MEMB      38              0.0000000000
      5001        38  POPC      H2X             6.2421749208        5.5489468863      -14.6861382360  MEMB      38              0.0000000000
      5002        38  POPC      H2Y             4.5402602430        5.2186625700      -14.0519461651  MEMB      38              0.0000000000
      5003        38  POPC      C23            10.3017637404       11.0171626297      -13.9243750007  MEMB      38              0.0000000000
      5004        38  POPC      H3R             9.9842871306       12.0806929000      -13.8750473087  MEMB      38              0.0000000000
      5005        38  POPC      H3S            10.5392232074       10.6884443231      -14.9587240228  MEMB      38              0.0000000000
      5006        38  POPC      C24            11.6809558924       10.9151378929      -13.1805898779  MEMB      38              0.0000000000
      5007        38  POPC      H4R            12.5434273826       10.9330353983      -13.8806924517  MEMB      38              0.0000000000
      5008        38  POPC      H4S            11.6411468465        9.9620150901      -12.6111225293  MEMB      38              0.0000000000
      5009        38  POPC      C25            12.0801332107       12.1336205976      -12.2803713422  MEMB      38              0.0000000000
      5010        38  POPC      H5R            12.2091952631       13.0948481474      -12.8223182119  MEMB      38              0.0000000000
      5011        38  POPC      H5S            13.0889581713       11.8213761268      -11.9352677019  MEMB      38              0.0000000000
      5012        38  POPC      C26            11.2242432388       12.3875999490      -11.0520821882  MEMB      38              0.0000000000
      5013        38  POPC      H6R            10.2019707018       12.6602658601      -11.3910998936  MEMB      38              0.0000000000
      5014        38  POPC      H6S            11.5750732876       13.2557051742      -10.4540587322  MEMB      38              0.0000000000
      5015        38  POPC      C27            11.2037132159       11.3223666693       -9.9289246959  MEMB      38              0.0000000000
      5016        38  POPC      H7R            12.2538567420       10.9625329690       -9.9740783939  MEMB      38              0.0000000000
      5017        38  POPC      H7S            10.5594085540       10.4467607474      -10.1580683502  MEMB      38              0.0000000000
      5018        38  POPC      C28            10.8604811367       11.8612305454       -8.4863285235  MEMB      38              0.0000000000
      5019        38  POPC      H8R             9.7682096136       12.0427960246       -8.5774205266  MEMB      38              0.0000000000
      5020        38  POPC      H8S            11.1951094865       12.9063299792       -8.3127996817  MEMB      38              0.0000000000
      5021        38  POPC      C29            11.0961985062       10.8332717687       -7.3352003576  MEMB      38              0.0000000000
      5022        38  POPC      H91            12.1293506507       10.6187935219       -7.0244009422  MEMB      38              0.0000000000
      5023        38  POPC      C210           10.0967793468       10.2428867966       -6.6650803417  MEMB      38              0.0000000000
      5024        38  POPC      H101           10.2861918134        9.5720621586       -5.8141300845  MEMB      38              0.0000000000
      5025        38  POPC      C211            8.5770374384       10.4295123222       -6.8950428052  MEMB      38              0.0000000000
      5026        38  POPC      H11R            8.0566558921        9.4519213691       -6.8064984775  MEMB      38              0.0000000000
      5027        38  POPC      H11S            8.3286682056       10.6035155493       -7.9638534048  MEMB      38              0.0000000000
      5028        38  POPC      C212            7.8754254952       11.4925808165       -6.0105492464  MEMB      38              0.0000000000
      5029        38  POPC      H12R            6.9681006756       11.8118778931       -6.5665450713  MEMB      38              0.0000000000
      5030        38  POPC      H12S            8.5745199657       12.3389556744       -5.8395593217  MEMB      38              0.0000000000
      5031        38  POPC      C213            7.4927141954       10.9135297697       -4.6837121973  MEMB      38              0.0000000000
      5032        38  POPC      H13R            7.0023345937        9.9229472390       -4.7959394883  MEMB      38              0.0000000000
      5033        38  POPC      H13S            6.8280657602       11.6978079462       -4.2624382643  MEMB      38              0.0000000000
      5034        38  POPC      C214            8.7226014911       10.8671754950       -3.7568602225  MEMB      38              0.0000000000
      5035        38  POPC      H14R            9.1141326467       11.8791178625       -3.5181192068  MEMB      38              0.0000000000
      5036        38  POPC      H14S            9.5013837090       10.2004306308       -4.1849616250  MEMB      38              0.0000000000
      5037        38  POPC      C215            8.3824826604       10.2497990491       -2.3681937375  MEMB      38              0.0000000000
      5038        38  POPC      H15R            8.4600808627        9.1523489286       -2.5227994084  MEMB      38              0.0000000000
      5039        38  POPC      H15S            7.4543430056       10.7338488609       -1.9959383330  MEMB      38              0.0000000000
      5040        38  POPC      C216            9.4015875531       10.7810991758       -1.3300890428  MEMB      38              0.0000000000
      5041        38  POPC      H16R            9.3016830702       11.8774129803       -1.1802992874  MEMB      38              0.0000000000
      5042        38  POPC      H16S           10.3802404459       10.5060335963       -1.7783067208  MEMB      38              0.0000000000
      5043        38  POPC      C217            9.2150554222       10.0987917414        0.0803746845  MEMB      38              0.0000000000
      5044        38  POPC      H17R            9.9708024667       10.5682188906        0.7458104187  MEMB      38              0.0000000000
      5045        38  POPC      H17S            9.6004627563        9.0688441206       -0.0777069400  MEMB      38              0.0000000000
      5046        38  POPC      C218            7.8182609954       10.1741519241        0.5826799139  MEMB      38              0.0000000000
      5047        38  POPC      H18R            7.0915360615        9.5339027651        0.0383706048  MEMB      38              0.0000000000
      5048        38  POPC      H18S            7.4026543674       11.2035611881        0.6263671149  MEMB      38              0.0000000000
      5049        38  POPC      H18T            7.7944497190        9.9255442032        1.6652460263  MEMB      38              0.0000000000
      5050        38  POPC      C33             5.7379744462        6.1187914700      -12.5955483654  MEMB      38              0.0000000000
      5051        38  POPC      H3X             5.4662710601        5.2105523065      -12.0162385699  MEMB      38              0.0000000000
      5052        38  POPC      H3Y             5.2095992795        6.9624721466      -12.1022499855  MEMB      38              0.0000000000
      5053        38  POPC      C34             7.3105079490        6.1508040648      -12.4647751841  MEMB      38              0.0000000000
      5054        38  POPC      H4X             7.5984988192        7.1227178204      -12.9194902957  MEMB      38              0.0000000000
      5055        38  POPC      H4Y             7.6783449671        5.3917958864      -13.1879097264  MEMB      38              0.0000000000
      5056        38  POPC      C35             7.8529435154        5.7520692696      -11.1214055771  MEMB      38              0.0000000000
      5057        38  POPC      H5X             7.6268236294        4.6653350592      -11.0745061856  MEMB      38              0.0000000000
      5058        38  POPC      H5Y             7.3487532607        6.3745333870      -10.3515669010  MEMB      38              0.0000000000
      5059        38  POPC      C36             9.3942191016        5.9694748368      -10.9368799306  MEMB      38              0.0000000000
      5060        38  POPC      H6X             9.5743953281        6.9694114046      -11.3863066954  MEMB      38              0.0000000000
      5061        38  POPC      H6Y             9.9683489303        5.2744701956      -11.5862366662  MEMB      38              0.0000000000
      5062        38  POPC      C37             9.8674243699        6.0797998285       -9.4519156597  MEMB      38              0.0000000000
      5063        38  POPC      H7X             9.2377740830        6.9109358411       -9.0684125939  MEMB      38              0.0000000000
      5064        38  POPC      H7Y            10.9367048983        6.3813699983       -9.4479946905  MEMB      38              0.0000000000
      5065        38  POPC      C38             9.7940854771        4.7736430453       -8.6795917159  MEMB      38              0.0000000000
      5066        38  POPC      H8X            10.2208098429        3.8636137851       -9.1529553027  MEMB      38              0.0000000000
      5067        38  POPC      H8Y             8.6977679474        4.6697508339       -8.5325683963  MEMB      38              0.0000000000
      5068        38  POPC      C39            10.2054874630        4.9772506704       -7.2243853113  MEMB      38              0.0000000000
      5069        38  POPC      H9X            11.3124022638        5.0568198149       -7.1721483504  MEMB      38              0.0000000000
      5070        38  POPC      H9Y            10.0203229908        3.9804257077       -6.7700997015  MEMB      38              0.0000000000
      5071        38  POPC      C310            9.3735332336        6.1318951594       -6.5800198737  MEMB      38              0.0000000000
      5072        38  POPC      H10X            8.2857752214        5.9068009195       -6.6009030953  MEMB      38              0.0000000000
      5073        38  POPC      H10Y            9.5176926289        7.0734829361       -7.1518165731  MEMB      38              0.0000000000
      5074        38  POPC      C311            9.7371708288        6.4376163866       -5.1136110848  MEMB      38              0.0000000000
      5075        38  POPC      H11X            9.4866717325        7.4938684793       -4.8771723373  MEMB      38              0.0000000000
      5076        38  POPC      H11Y           10.8145038506        6.2982563065       -4.8806876623  MEMB      38              0.0000000000
      5077        38  POPC      C312            8.8374020781        5.5811693889       -4.0919761390  MEMB      38              0.0000000000
      5078        38  POPC      H12X            9.1967440350        5.7072091649       -3.0482770080  MEMB      38              0.0000000000
      5079        38  POPC      H12Y            8.8374794614        4.4920873595       -4.3115694862  MEMB      38              0.0000000000
      5080        38  POPC      C313            7.4304697757        6.1862845485       -3.8607263342  MEMB      38              0.0000000000
      5081        38  POPC      H13X            6.8430952179        6.0810476956       -4.7978699679  MEMB      38              0.0000000000
      5082        38  POPC      H13Y            7.5365141053        7.2358508842       -3.5121781689  MEMB      38              0.0000000000
      5083        38  POPC      C314            6.7864708686        5.4405779352       -2.7437650202  MEMB      38              0.0000000000
      5084        38  POPC      H14X            7.4252702180        5.3915569387       -1.8361007326  MEMB      38              0.0000000000
      5085        38  POPC      H14Y            6.5134845822        4.3907396873       -2.9838443576  MEMB      38              0.0000000000
      5086        38  POPC      C315            5.3637747038        6.1221097090       -2.4872339878  MEMB      38              0.0000000000
      5087        38  POPC      H15X            4.7817354591        5.4240658710       -1.8482613138  MEMB      38              0.0000000000
      5088        38  POPC      H15Y            4.7645584300        6.1322427555       -3.4227327714  MEMB      38              0.0000000000
      5089        38  POPC      C316            5.3974796087        7.5873678837       -2.1295890288  MEMB      38              0.0000000000
      5090        38  POPC      H16X            4.5126855570        7.9573171978       -1.5686994641  MEMB      38              0.0000000000
      5091        38  POPC      H16Y            5.5712047509        8.1990748349       -3.0406087381  MEMB      38              0.0000000000
      5092        38  POPC      H16Z            6.3006506516        7.7908432349       -1.5154234125  MEMB      38              0.0000000000
      5093        39  POPC      N               2.6774307819       12.5299529799      -20.4937276743  MEMB      39              0.0000000000
      5094        39  POPC      C12             3.8742003658       12.3322513641      -19.6385960011  MEMB      39              0.0000000000
      5095        39  POPC      H12A            4.2633551816       13.3310849907      -19.5071053760  MEMB      39              0.0000000000
      5096        39  POPC      H12B            4.6319743111       11.8227429103      -20.2152934043  MEMB      39              0.0000000000
      5097        39  POPC      C13             1.5630756687       13.1649197193      -19.6350839073  MEMB      39              0.0000000000
      5098        39  POPC      H13A            1.8047474737       14.1839975547      -19.3715026725  MEMB      39              0.0000000000
      5099        39  POPC      H13B            0.6363718250       13.0272169306      -20.1723528698  MEMB      39              0.0000000000
      5100        39  POPC      H13C            1.5751135981       12.6481549091      -18.6868174369  MEMB      39              0.0000000000
      5101        39  POPC      C14             2.9847385555       13.4710418932      -21.6345125802  MEMB      39              0.0000000000
      5102        39  POPC      H14A            3.8618368626       13.1745352515      -22.1905543852  MEMB      39              0.0000000000
      5103        39  POPC      H14B            2.1002070197       13.4435878040      -22.2535846883  MEMB      39              0.0000000000
      5104        39  POPC      H14C            3.0761124276       14.4630613162      -21.2174416184  MEMB      39              0.0000000000
      5105        39  POPC      C15             2.1482748242       11.1991223862      -21.1768433264  MEMB      39              0.0000000000
      5106        39  POPC      H15A            1.7990186030       10.5437718113      -20.3926650133  MEMB      39              0.0000000000
      5107        39  POPC      H15B            2.9048843542       10.8399687033      -21.8587163869  MEMB      39              0.0000000000
      5108        39  POPC      H15C            1.2818796434       11.5376791599      -21.7256043593  MEMB      39              0.0000000000
      5109        39  POPC      C11             3.6864593160       11.5596960270      -18.2776892567  MEMB      39              0.0000000000
      5110        39  POPC      H11A            3.2914350935       12.2690769846      -17.5193650215  MEMB      39              0.0000000000
      5111        39  POPC      H11B            4.6590831275       11.1933908039      -17.8850769981  MEMB      39              0.0000000000
      5112        39  POPC      P               1.6410747987       10.0690511088      -17.5725948772  MEMB      39              0.0000000000
      5113        39  POPC      O13             2.0941554106        9.6887552280      -16.2281487914  MEMB      39              0.0000000000
      5114        39  POPC      O14             0.8367171923        9.0013912084      -18.2739551113  MEMB      39              0.0000000000
      5115        39  POPC      O12             2.8941077813       10.3913908211      -18.4504206436  MEMB      39              0.0000000000
      5116        39  POPC      O11             0.7322661070       11.4497697626      -17.6184278065  MEMB      39              0.0000000000
      5117        39  POPC      C1             -0.2038412335       11.6708668691      -16.6249562667  MEMB      39              0.0000000000
      5118        39  POPC      HA             -0.0089194001       11.0455614586      -15.7275601918  MEMB      39              0.0000000000
      5119        39  POPC      HB             -1.2076024472       11.3751608913      -16.9982422138  MEMB      39              0.0000000000
      5120        39  POPC      C2             -0.2752425132       13.1959801296      -16.2575682425  MEMB      39              0.0000000000
      5121        39  POPC      HS             -0.7903400498       13.7295991372      -17.0847599706  MEMB      39              0.0000000000
      5122        39  POPC      O21             1.0719935517       13.7143064686      -16.1763374757  MEMB      39              0.0000000000
      5123        39  POPC      C21             1.2773152873       14.9782501209      -16.4566027366  MEMB      39              0.0000000000
      5124        39  POPC      O22             0.4738191914       15.8111124044      -16.7563153114  MEMB      39              0.0000000000
      5125        39  POPC      C22             2.8090134449       15.2842724839      -16.3315924219  MEMB      39              0.0000000000
      5126        39  POPC      H2R             3.0388239111       16.3712436100      -16.3329914641  MEMB      39              0.0000000000
      5127        39  POPC      H2S             3.4178401175       14.7225352007      -17.0719317005  MEMB      39              0.0000000000
      5128        39  POPC      C3             -0.9657987884       13.4375088251      -14.9134055750  MEMB      39              0.0000000000
      5129        39  POPC      HX             -1.9866228777       13.0025547251      -14.9686686880  MEMB      39              0.0000000000
      5130        39  POPC      HY             -1.2176063087       14.5139546887      -14.8030491322  MEMB      39              0.0000000000
      5131        39  POPC      O31            -0.1975683205       13.0112994583      -13.7981561138  MEMB      39              0.0000000000
      5132        39  POPC      C31            -0.8077092769       12.3488833507      -12.7927597930  MEMB      39              0.0000000000
      5133        39  POPC      O32            -1.9830116666       12.2804963751      -12.5616159893  MEMB      39              0.0000000000
      5134        39  POPC      C32             0.2742352327       11.7768249503      -11.9127249030  MEMB      39              0.0000000000
      5135        39  POPC      H2X            -0.1127575985       12.0461825204      -10.9067406980  MEMB      39              0.0000000000
      5136        39  POPC      H2Y             1.2646132429       12.2336912123      -12.1242566160  MEMB      39              0.0000000000
      5137        39  POPC      C23             3.4644068809       14.7144365401      -14.9898052376  MEMB      39              0.0000000000
      5138        39  POPC      H3R             2.9984065302       13.7422305378      -14.7215143908  MEMB      39              0.0000000000
      5139        39  POPC      H3S             3.3228772256       15.4221770837      -14.1451791864  MEMB      39              0.0000000000
      5140        39  POPC      C24             5.0038420029       14.4805245909      -15.1955790125  MEMB      39              0.0000000000
      5141        39  POPC      H4R             5.2313865815       15.4392619241      -15.7087720221  MEMB      39              0.0000000000
      5142        39  POPC      H4S             5.0461817399       13.6891560867      -15.9742086142  MEMB      39              0.0000000000
      5143        39  POPC      C25             5.7861986693       14.2739249353      -13.8926814889  MEMB      39              0.0000000000
      5144        39  POPC      H5R             5.4853662409       15.0460723155      -13.1526752437  MEMB      39              0.0000000000
      5145        39  POPC      H5S             6.8708395956       14.2636649779      -14.1330349641  MEMB      39              0.0000000000
      5146        39  POPC      C26             5.6211256632       12.8841736082      -13.1784586568  MEMB      39              0.0000000000
      5147        39  POPC      H6R             5.7749254890       12.1111983502      -13.9615139482  MEMB      39              0.0000000000
      5148        39  POPC      H6S             4.5795752173       12.8770546464      -12.7918802103  MEMB      39              0.0000000000
      5149        39  POPC      C27             6.5380353819       12.7023514474      -11.9758790225  MEMB      39              0.0000000000
      5150        39  POPC      H7R             6.2003303799       13.4111476962      -11.1898229162  MEMB      39              0.0000000000
      5151        39  POPC      H7S             7.5859132964       12.8983900629      -12.2886759619  MEMB      39              0.0000000000
      5152        39  POPC      C28             6.4801305491       11.3475825696      -11.3029964840  MEMB      39              0.0000000000
      5153        39  POPC      H8R             7.2050952196       11.1228377651      -10.4916777415  MEMB      39              0.0000000000
      5154        39  POPC      H8S             6.7834415060       10.6578214493      -12.1194233739  MEMB      39              0.0000000000
      5155        39  POPC      C29             5.1663517893       10.9106656022      -10.8763247678  MEMB      39              0.0000000000
      5156        39  POPC      H91             4.6837564270       10.2103139229      -11.5738984442  MEMB      39              0.0000000000
      5157        39  POPC      C210            4.4953985615       11.3292247325       -9.7817672652  MEMB      39              0.0000000000
      5158        39  POPC      H101            3.4876413967       10.9205576545       -9.6161874002  MEMB      39              0.0000000000
      5159        39  POPC      C211            4.9114853919       12.3504689300       -8.6748302233  MEMB      39              0.0000000000
      5160        39  POPC      H11R            4.5299402001       13.3412121202       -9.0022018901  MEMB      39              0.0000000000
      5161        39  POPC      H11S            6.0147808804       12.4099677170       -8.5585537812  MEMB      39              0.0000000000
      5162        39  POPC      C212            4.2876564593       12.1836153961       -7.3243104623  MEMB      39              0.0000000000
      5163        39  POPC      H12R            3.1857160973       12.2749302336       -7.4325242689  MEMB      39              0.0000000000
      5164        39  POPC      H12S            4.6215656368       12.9733175523       -6.6177727012  MEMB      39              0.0000000000
      5165        39  POPC      C213            4.7680010649       10.9174727374       -6.6146147386  MEMB      39              0.0000000000
      5166        39  POPC      H13R            5.5763343318       10.5647478671       -7.2902643574  MEMB      39              0.0000000000
      5167        39  POPC      H13S            4.1407306670       10.0004927503       -6.6139744312  MEMB      39              0.0000000000
      5168        39  POPC      C214            5.3136674101       11.1830124356       -5.2494605383  MEMB      39              0.0000000000
      5169        39  POPC      H14R            5.7260422881       12.2146428831       -5.2520178265  MEMB      39              0.0000000000
      5170        39  POPC      H14S            6.1403237131       10.4573207493       -5.0934731630  MEMB      39              0.0000000000
      5171        39  POPC      C215            4.3376229455       10.9818428811       -4.1173715659  MEMB      39              0.0000000000
      5172        39  POPC      H15R            3.8985447160        9.9751427623       -4.2849603279  MEMB      39              0.0000000000
      5173        39  POPC      H15S            3.5122209505       11.7029634405       -4.2990801149  MEMB      39              0.0000000000
      5174        39  POPC      C216            4.8876730726       10.9700780207       -2.7001209055  MEMB      39              0.0000000000
      5175        39  POPC      H16R            5.2071670147       12.0021792990       -2.4412556546  MEMB      39              0.0000000000
      5176        39  POPC      H16S            5.7519722528       10.2734598561       -2.7451896682  MEMB      39              0.0000000000
      5177        39  POPC      C217            3.9763306141       10.4330148290       -1.6156580836  MEMB      39              0.0000000000
      5178        39  POPC      H17R            3.8210511477        9.3582687657       -1.8504546717  MEMB      39              0.0000000000
      5179        39  POPC      H17S            3.0098411214       10.9765275945       -1.6850335281  MEMB      39              0.0000000000
      5180        39  POPC      C218            4.3976978760       10.6278454784       -0.1668533298  MEMB      39              0.0000000000
      5181        39  POPC      H18R            5.4204389602       10.2382743182        0.0243434326  MEMB      39              0.0000000000
      5182        39  POPC      H18S            3.6069599780       10.1624245777        0.4595950083  MEMB      39              0.0000000000
      5183        39  POPC      H18T            4.4042693835       11.6783556478        0.1946805867  MEMB      39              0.0000000000
      5184        39  POPC      C33             0.2852301501       10.2853459180      -12.0655625346  MEMB      39              0.0000000000
      5185        39  POPC      H3X             0.7997749491        9.9861084541      -13.0036571355  MEMB      39              0.0000000000
      5186        39  POPC      H3Y            -0.7317487311        9.8490564858      -11.9669405577  MEMB      39              0.0000000000
      5187        39  POPC      C34             1.1903522682        9.5651239471      -10.9974436660  MEMB      39              0.0000000000
      5188        39  POPC      H4X             2.2933385203        9.6136508673      -11.1214900964  MEMB      39              0.0000000000
      5189        39  POPC      H4Y             0.9424891024        8.4908907170      -11.1349497199  MEMB      39              0.0000000000
      5190        39  POPC      C35             0.8342936609       10.0927654304       -9.5033002105  MEMB      39              0.0000000000
      5191        39  POPC      H5X            -0.2635099520       10.2483163882       -9.4329287641  MEMB      39              0.0000000000
      5192        39  POPC      H5Y             1.2597386482       11.0908621616       -9.2643010713  MEMB      39              0.0000000000
      5193        39  POPC      C36             1.2741259047        9.0507039180       -8.4412022262  MEMB      39              0.0000000000
      5194        39  POPC      H6X             2.3612854171        8.8824969211       -8.5964807929  MEMB      39              0.0000000000
      5195        39  POPC      H6Y             0.8563339200        8.0492597607       -8.6796984305  MEMB      39              0.0000000000
      5196        39  POPC      C37             1.1246591728        9.4268830851       -6.9901625408  MEMB      39              0.0000000000
      5197        39  POPC      H7X             1.6368689408       10.3887086837       -6.7737044926  MEMB      39              0.0000000000
      5198        39  POPC      H7Y             1.4581480109        8.6003230793       -6.3269088760  MEMB      39              0.0000000000
      5199        39  POPC      C38            -0.2723368137        9.7256745102       -6.5608220025  MEMB      39              0.0000000000
      5200        39  POPC      H8X            -0.7622057087        8.7435566605       -6.3882139589  MEMB      39              0.0000000000
      5201        39  POPC      H8Y            -0.8940470122       10.1880049800       -7.3570937493  MEMB      39              0.0000000000
      5202        39  POPC      C39            -0.3228442461       10.6131303009       -5.3111486014  MEMB      39              0.0000000000
      5203        39  POPC      H9X            -0.0265991212       11.6298768584       -5.6469855295  MEMB      39              0.0000000000
      5204        39  POPC      H9Y             0.4321096791       10.3406064760       -4.5429715761  MEMB      39              0.0000000000
      5205        39  POPC      C310           -1.6817886688       10.5996585562       -4.5822197082  MEMB      39              0.0000000000
      5206        39  POPC      H10X           -1.8923760876        9.5715627027       -4.2175383761  MEMB      39              0.0000000000
      5207        39  POPC      H10Y           -2.4665199084       10.8423994518       -5.3302810167  MEMB      39              0.0000000000
      5208        39  POPC      C311           -1.7034658661       11.6790717990       -3.4344153886  MEMB      39              0.0000000000
      5209        39  POPC      H11X           -0.9799264733       11.3765014032       -2.6474829727  MEMB      39              0.0000000000
      5210        39  POPC      H11Y           -2.7236035172       11.5758071944       -3.0066578459  MEMB      39              0.0000000000
      5211        39  POPC      C312           -1.3558437964       13.1743216519       -3.7807926406  MEMB      39              0.0000000000
      5212        39  POPC      H12X           -2.1142840674       13.4362138449       -4.5492341147  MEMB      39              0.0000000000
      5213        39  POPC      H12Y           -0.3354308725       13.3155279915       -4.1968929819  MEMB      39              0.0000000000
      5214        39  POPC      C313           -1.6697079204       14.1128826727       -2.6266487295  MEMB      39              0.0000000000
      5215        39  POPC      H13X           -2.6025869199       13.7637605737       -2.1345402278  MEMB      39              0.0000000000
      5216        39  POPC      H13Y           -1.8359926720       15.1752467081       -2.9060287321  MEMB      39              0.0000000000
      5217        39  POPC      C314           -0.5329509035       14.0033713483       -1.5394806194  MEMB      39              0.0000000000
      5218        39  POPC      H14X           -0.3124544887       12.9398339464       -1.3058349669  MEMB      39              0.0000000000
      5219        39  POPC      H14Y           -0.9376469805       14.5985366793       -0.6931227170  MEMB      39              0.0000000000
      5220        39  POPC      C315            0.6876775588       14.7491208490       -1.9235129099  MEMB      39              0.0000000000
      5221        39  POPC      H15X            0.4252553963       15.7985464278       -2.1768146204  MEMB      39              0.0000000000
      5222        39  POPC      H15Y            1.2397761524       14.3653887369       -2.8079677189  MEMB      39              0.0000000000
      5223        39  POPC      C316            1.7615082300       14.7006007340       -0.7088336598  MEMB      39              0.0000000000
      5224        39  POPC      H16X            1.7637303411       13.6641978059       -0.3086018503  MEMB      39              0.0000000000
      5225        39  POPC      H16Y            1.3503883328       15.3802286033        0.0679595641  MEMB      39              0.0000000000
      5226        39  POPC      H16Z            2.7538909940       14.9708938516       -1.1288785954  MEMB      39              0.0000000000
      5227        40  POPC      N               5.0323425446       -9.4269461387      -20.7151687446  MEMB      40              0.0000000000
      5228        40  POPC      C12             5.6500442501      -10.8136356632      -20.6975310169  MEMB      40              0.0000000000
      5229        40  POPC      H12A            5.8887209467      -11.1039433453      -21.7100303393  MEMB      40              0.0000000000
      5230        40  POPC      H12B            4.8934919972      -11.5445460947      -20.4529931529  MEMB      40              0.0000000000
      5231        40  POPC      C13             6.0067278625       -8.3552231121      -21.0491191570  MEMB      40              0.0000000000
      5232        40  POPC      H13A            5.4392097040       -7.4449530143      -20.9236933074  MEMB      40              0.0000000000
      5233        40  POPC      H13B            6.8040162809       -8.3189599991      -20.3215093224  MEMB      40              0.0000000000
      5234        40  POPC      H13C            6.4748624034       -8.3886203169      -22.0218137905  MEMB      40              0.0000000000
      5235        40  POPC      C14             4.0377387664       -9.2740366771      -21.8183189715  MEMB      40              0.0000000000
      5236        40  POPC      H14A            3.7465670549       -8.2399113585      -21.7078472898  MEMB      40              0.0000000000
      5237        40  POPC      H14B            4.5052180536       -9.6320464103      -22.7236874022  MEMB      40              0.0000000000
      5238        40  POPC      H14C            3.2070588619       -9.9205012094      -21.5765455929  MEMB      40              0.0000000000
      5239        40  POPC      C15             4.3999164096       -9.0660772345      -19.4024513997  MEMB      40              0.0000000000
      5240        40  POPC      H15A            3.6262976793       -9.7756781682      -19.1487181257  MEMB      40              0.0000000000
      5241        40  POPC      H15B            3.8857448456       -8.1167886623      -19.4320984082  MEMB      40              0.0000000000
      5242        40  POPC      H15C            5.0131278848       -9.2987188996      -18.5444015149  MEMB      40              0.0000000000
      5243        40  POPC      C11             6.8632818283      -11.0775642317      -19.7165130547  MEMB      40              0.0000000000
      5244        40  POPC      H11A            7.5963354798      -10.2464315059      -19.7950738456  MEMB      40              0.0000000000
      5245        40  POPC      H11B            7.3140955209      -12.0780051860      -19.8903115328  MEMB      40              0.0000000000
      5246        40  POPC      P               7.0650966653      -10.8436650121      -17.0441581673  MEMB      40              0.0000000000
      5247        40  POPC      O13             7.9999316565      -11.9330964742      -16.6593170694  MEMB      40              0.0000000000
      5248        40  POPC      O14             6.1282829562      -10.2681458354      -16.0310279323  MEMB      40              0.0000000000
      5249        40  POPC      O12             6.3046263775      -11.0860652311      -18.4521851662  MEMB      40              0.0000000000
      5250        40  POPC      O11             8.0800640841       -9.6977551169      -17.4142092954  MEMB      40              0.0000000000
      5251        40  POPC      C1              7.6388688812       -8.3380374965      -17.7326312403  MEMB      40              0.0000000000
      5252        40  POPC      HA              6.5412258775       -8.3187513645      -17.5619591759  MEMB      40              0.0000000000
      5253        40  POPC      HB              7.8490036834       -8.2691111679      -18.8213981827  MEMB      40              0.0000000000
      5254        40  POPC      C2              8.3763906227       -7.2613561089      -16.9216523058  MEMB      40              0.0000000000
      5255        40  POPC      HS              9.3894925613       -7.3174384682      -17.3742005848  MEMB      40              0.0000000000
      5256        40  POPC      O21             8.3051404861       -7.7192569018      -15.5578113846  MEMB      40              0.0000000000
      5257        40  POPC      C21             9.4002710493       -7.8283901085      -14.8253053079  MEMB      40              0.0000000000
      5258        40  POPC      O22            10.4886777215       -7.4461991157      -15.1952941921  MEMB      40              0.0000000000
      5259        40  POPC      C22             9.1762992189       -8.5297275803      -13.4386121303  MEMB      40              0.0000000000
      5260        40  POPC      H2R             8.7305137787       -7.7826136551      -12.7476583197  MEMB      40              0.0000000000
      5261        40  POPC      H2S            10.2131893450       -8.6852906156      -13.0712157428  MEMB      40              0.0000000000
      5262        40  POPC      C3              7.7572222146       -5.8438875912      -17.1660623750  MEMB      40              0.0000000000
      5263        40  POPC      HX              7.6363634809       -5.4448287693      -18.1958516689  MEMB      40              0.0000000000
      5264        40  POPC      HY              8.3619315926       -5.1101148719      -16.5914103525  MEMB      40              0.0000000000
      5265        40  POPC      O31             6.4484878972       -5.7260834900      -16.4960119734  MEMB      40              0.0000000000
      5266        40  POPC      C31             5.3784932661       -6.0189287259      -17.1992498041  MEMB      40              0.0000000000
      5267        40  POPC      O32             5.3651616314       -6.3126289700      -18.3769960084  MEMB      40              0.0000000000
      5268        40  POPC      C32             4.1152312640       -5.9097651667      -16.2837590270  MEMB      40              0.0000000000
      5269        40  POPC      H2X             3.1979635610       -6.0572222435      -16.8930187176  MEMB      40              0.0000000000
      5270        40  POPC      H2Y             4.2600317511       -4.9142591353      -15.8122494347  MEMB      40              0.0000000000
      5271        40  POPC      C23             8.2744317000       -9.7471032310      -13.4560081809  MEMB      40              0.0000000000
      5272        40  POPC      H3R             8.2714128413      -10.0585239358      -14.5224644407  MEMB      40              0.0000000000
      5273        40  POPC      H3S             7.2737560944       -9.5236171516      -13.0281956913  MEMB      40              0.0000000000
      5274        40  POPC      C24             8.7834055591      -11.0326018393      -12.6967677262  MEMB      40              0.0000000000
      5275        40  POPC      H4R             8.6640915418      -10.7546535275      -11.6277354746  MEMB      40              0.0000000000
      5276        40  POPC      H4S             9.8098355419      -11.2363869480      -13.0699086096  MEMB      40              0.0000000000
      5277        40  POPC      C25             7.8663929029      -12.2821753721      -12.9450836511  MEMB      40              0.0000000000
      5278        40  POPC      H5R             8.0915546944      -12.5992753592      -13.9857904593  MEMB      40              0.0000000000
      5279        40  POPC      H5S             6.7868797665      -12.0614653485      -12.8027478411  MEMB      40              0.0000000000
      5280        40  POPC      C26             8.2886527784      -13.5386313116      -12.1295938663  MEMB      40              0.0000000000
      5281        40  POPC      H6R             9.3419077316      -13.4821372566      -11.7806187814  MEMB      40              0.0000000000
      5282        40  POPC      H6S             8.1454155494      -14.3720286025      -12.8501859677  MEMB      40              0.0000000000
      5283        40  POPC      C27             7.3777526045      -13.7869212660      -10.9099304995  MEMB      40              0.0000000000
      5284        40  POPC      H7R             7.6849540647      -14.7647262075      -10.4811577406  MEMB      40              0.0000000000
      5285        40  POPC      H7S             6.3451526746      -13.9655512927      -11.2789147379  MEMB      40              0.0000000000
      5286        40  POPC      C28             7.4502826383      -12.7014838671       -9.7448534794  MEMB      40              0.0000000000
      5287        40  POPC      H8R             6.9689601586      -11.7650435404      -10.0994364889  MEMB      40              0.0000000000
      5288        40  POPC      H8S             8.5110296269      -12.4551169417       -9.5247619128  MEMB      40              0.0000000000
      5289        40  POPC      C29             6.8511560046      -13.1703676858       -8.5299360345  MEMB      40              0.0000000000
      5290        40  POPC      H91             5.7526925843      -13.2284054031       -8.5330452164  MEMB      40              0.0000000000
      5291        40  POPC      C210            7.5177174121      -13.4913431095       -7.3863179392  MEMB      40              0.0000000000
      5292        40  POPC      H101            6.9746699050      -13.7769321476       -6.4733352111  MEMB      40              0.0000000000
      5293        40  POPC      C211            9.0355973033      -13.3987425723       -7.1819597498  MEMB      40              0.0000000000
      5294        40  POPC      H11R            9.5813783901      -12.9718916300       -8.0504311636  MEMB      40              0.0000000000
      5295        40  POPC      H11S            9.3029600339      -14.4493071581       -6.9387470742  MEMB      40              0.0000000000
      5296        40  POPC      C212            9.4157499344      -12.4609505617       -6.0445419013  MEMB      40              0.0000000000
      5297        40  POPC      H12R           10.4405387443      -12.7974243763       -5.7782443510  MEMB      40              0.0000000000
      5298        40  POPC      H12S            8.7289532940      -12.5802483718       -5.1794414292  MEMB      40              0.0000000000
      5299        40  POPC      C213            9.5544552447      -10.9894096845       -6.5436347957  MEMB      40              0.0000000000
      5300        40  POPC      H13R            8.5261269863      -10.5765890335       -6.6238910778  MEMB      40              0.0000000000
      5301        40  POPC      H13S            9.9643560316      -11.0260730239       -7.5756025426  MEMB      40              0.0000000000
      5302        40  POPC      C214           10.3738727905      -10.0938777008       -5.6511724429  MEMB      40              0.0000000000
      5303        40  POPC      H14R           11.4062089967      -10.4986115887       -5.7204078339  MEMB      40              0.0000000000
      5304        40  POPC      H14S            9.9084762079      -10.3154005999       -4.6669698524  MEMB      40              0.0000000000
      5305        40  POPC      C215           10.4926950011       -8.5418511601       -5.9280342033  MEMB      40              0.0000000000
      5306        40  POPC      H15R            9.7353303993       -8.1791459974       -6.6554708283  MEMB      40              0.0000000000
      5307        40  POPC      H15S           11.5003747177       -8.3129842375       -6.3361063684  MEMB      40              0.0000000000
      5308        40  POPC      C216           10.3240793815       -7.7570337076       -4.6469706479  MEMB      40              0.0000000000
      5309        40  POPC      H16R            9.3302056824       -7.8373093661       -4.1569788720  MEMB      40              0.0000000000
      5310        40  POPC      H16S           10.4802265992       -6.6888790449       -4.9096196162  MEMB      40              0.0000000000
      5311        40  POPC      C217           11.3371189826       -8.0944580482       -3.5719442648  MEMB      40              0.0000000000
      5312        40  POPC      H17R           12.3618446896       -8.2060975277       -3.9864251929  MEMB      40              0.0000000000
      5313        40  POPC      H17S           11.1119986413       -9.1094939267       -3.1803522867  MEMB      40              0.0000000000
      5314        40  POPC      C218           11.3219582302       -7.2638140440       -2.2933870507  MEMB      40              0.0000000000
      5315        40  POPC      H18R           11.7315784880       -6.2481001317       -2.4800893323  MEMB      40              0.0000000000
      5316        40  POPC      H18S           11.9374662434       -7.6860115204       -1.4704536220  MEMB      40              0.0000000000
      5317        40  POPC      H18T           10.3403429512       -7.1086944312       -1.7967083700  MEMB      40              0.0000000000
      5318        40  POPC      C33             4.2132333170       -6.9865641996      -15.1074136464  MEMB      40              0.0000000000
      5319        40  POPC      H3X             5.0080057484       -6.7894373917      -14.3565483433  MEMB      40              0.0000000000
      5320        40  POPC      H3Y             4.5024720848       -7.8839127071      -15.6951446322  MEMB      40              0.0000000000
      5321        40  POPC      C34             2.9089420052       -7.2454722976      -14.4503963614  MEMB      40              0.0000000000
      5322        40  POPC      H4X             2.1047610155       -7.3578723046      -15.2086707767  MEMB      40              0.0000000000
      5323        40  POPC      H4Y             2.5461126285       -6.4250040608      -13.7950282212  MEMB      40              0.0000000000
      5324        40  POPC      C35             2.9468274617       -8.5597380048      -13.6559554104  MEMB      40              0.0000000000
      5325        40  POPC      H5X             2.8995389960       -9.4472004274      -14.3226605901  MEMB      40              0.0000000000
      5326        40  POPC      H5Y             1.9584699758       -8.6065814432      -13.1507068202  MEMB      40              0.0000000000
      5327        40  POPC      C36             4.1383048488       -8.7850289799      -12.7062088677  MEMB      40              0.0000000000
      5328        40  POPC      H6X             5.0824541593       -8.4996638036      -13.2175501809  MEMB      40              0.0000000000
      5329        40  POPC      H6Y             4.2224190024       -9.8593417595      -12.4358421935  MEMB      40              0.0000000000
      5330        40  POPC      C37             4.0161489355       -7.8989188427      -11.4477081961  MEMB      40              0.0000000000
      5331        40  POPC      H7X             3.1405777147       -8.2102752505      -10.8388131651  MEMB      40              0.0000000000
      5332        40  POPC      H7Y             3.9113149459       -6.8065159204      -11.6208758553  MEMB      40              0.0000000000
      5333        40  POPC      C38             5.2860719406       -7.8853875596      -10.6597762858  MEMB      40              0.0000000000
      5334        40  POPC      H8X             6.1449046883       -7.6516572376      -11.3246807097  MEMB      40              0.0000000000
      5335        40  POPC      H8Y             5.6118829592       -8.9039748983      -10.3586985820  MEMB      40              0.0000000000
      5336        40  POPC      C39             5.2635344979       -7.0179866420       -9.4045803025  MEMB      40              0.0000000000
      5337        40  POPC      H9X             4.2917756577       -7.1578835310       -8.8845463884  MEMB      40              0.0000000000
      5338        40  POPC      H9Y             5.4149460394       -5.9828396856       -9.7785665340  MEMB      40              0.0000000000
      5339        40  POPC      C310            6.4014244013       -7.3730968818       -8.4183726552  MEMB      40              0.0000000000
      5340        40  POPC      H10X            6.3868202147       -6.5478940871       -7.6746328354  MEMB      40              0.0000000000
      5341        40  POPC      H10Y            7.3694418212       -7.4108130439       -8.9622853424  MEMB      40              0.0000000000
      5342        40  POPC      C311            6.2891075820       -8.8301650567       -7.8659018731  MEMB      40              0.0000000000
      5343        40  POPC      H11X            7.1761505866       -9.1529059257       -7.2799721709  MEMB      40              0.0000000000
      5344        40  POPC      H11Y            6.3593817770       -9.4554561417       -8.7815406186  MEMB      40              0.0000000000
      5345        40  POPC      C312            5.0397530619       -9.2444225798       -7.1585641600  MEMB      40              0.0000000000
      5346        40  POPC      H12X            4.6802296221      -10.2785857123       -7.3471658069  MEMB      40              0.0000000000
      5347        40  POPC      H12Y            4.2195581474       -8.5823215553       -7.5095960675  MEMB      40              0.0000000000
      5348        40  POPC      C313            5.1458730260       -9.0919114132       -5.5850452391  MEMB      40              0.0000000000
      5349        40  POPC      H13X            4.1069387261       -9.3976100193       -5.3370833967  MEMB      40              0.0000000000
      5350        40  POPC      H13Y            5.4083823032       -8.0145090533       -5.5171164771  MEMB      40              0.0000000000
      5351        40  POPC      C314            6.0805629539      -10.0038273353       -4.7656671824  MEMB      40              0.0000000000
      5352        40  POPC      H14X            7.1417331556       -9.8084952267       -5.0304016147  MEMB      40              0.0000000000
      5353        40  POPC      H14Y            5.9061216844      -11.0319928817       -5.1487688635  MEMB      40              0.0000000000
      5354        40  POPC      C315            6.0454700843       -9.8426421016       -3.1777067496  MEMB      40              0.0000000000
      5355        40  POPC      H15X            5.1668115169      -10.4602845361       -2.8934568462  MEMB      40              0.0000000000
      5356        40  POPC      H15Y            5.7497741563       -8.8298652997       -2.8296145500  MEMB      40              0.0000000000
      5357        40  POPC      C316            7.2994086631      -10.4266850121       -2.4404592988  MEMB      40              0.0000000000
      5358        40  POPC      H16X            7.0786422132      -10.3376812574       -1.3552578092  MEMB      40              0.0000000000
      5359        40  POPC      H16Y            8.2425014076       -9.8434582538       -2.5093330266  MEMB      40              0.0000000000
      5360        40  POPC      H16Z            7.5198543181      -11.4488444301       -2.8158451429  MEMB      40              0.0000000000
      5361        41  POPC      N             -10.7873248851       -7.4023017067      -20.8765867164  MEMB      41              0.0000000000
      5362        41  POPC      C12           -10.1689370632       -6.5698673804      -19.7231781398  MEMB      41              0.0000000000
      5363        41  POPC      H12A          -10.8332479832       -6.4200304083      -18.8849419605  MEMB      41              0.0000000000
      5364        41  POPC      H12B          -10.0059901276       -5.5773259325      -20.1165098398  MEMB      41              0.0000000000
      5365        41  POPC      C13           -11.8721869818       -6.4682905837      -21.3862501404  MEMB      41              0.0000000000
      5366        41  POPC      H13A          -11.4829049089       -5.8117153649      -22.1502973052  MEMB      41              0.0000000000
      5367        41  POPC      H13B          -12.5876618339       -7.1796641840      -21.7715337586  MEMB      41              0.0000000000
      5368        41  POPC      H13C          -12.2531769712       -5.8780994891      -20.5659325283  MEMB      41              0.0000000000
      5369        41  POPC      C14            -9.8357395594       -7.7389113942      -21.9388041855  MEMB      41              0.0000000000
      5370        41  POPC      H14A           -9.2728176805       -6.8536393298      -22.1953431444  MEMB      41              0.0000000000
      5371        41  POPC      H14B           -9.1393048814       -8.5176086203      -21.6649258867  MEMB      41              0.0000000000
      5372        41  POPC      H14C          -10.4589917962       -8.0657719418      -22.7580226877  MEMB      41              0.0000000000
      5373        41  POPC      C15           -11.3843367271       -8.6380742933      -20.2795831240  MEMB      41              0.0000000000
      5374        41  POPC      H15A          -10.6156048121       -9.1150623859      -19.6897241553  MEMB      41              0.0000000000
      5375        41  POPC      H15B          -11.7622138698       -9.3131990163      -21.0331183763  MEMB      41              0.0000000000
      5376        41  POPC      H15C          -12.1691356360       -8.3808788810      -19.5836369583  MEMB      41              0.0000000000
      5377        41  POPC      C11            -8.8162391499       -7.1309172261      -19.1874293404  MEMB      41              0.0000000000
      5378        41  POPC      H11A           -8.4007886662       -6.2581910808      -18.6396419998  MEMB      41              0.0000000000
      5379        41  POPC      H11B           -8.1983062905       -7.2485680998      -20.1032012188  MEMB      41              0.0000000000
      5380        41  POPC      P              -8.2814485286       -8.7757124115      -17.1468982156  MEMB      41              0.0000000000
      5381        41  POPC      O13            -7.2895716087       -7.7451613374      -16.7532698436  MEMB      41              0.0000000000
      5382        41  POPC      O14            -7.8824995205      -10.1863663151      -17.1040518401  MEMB      41              0.0000000000
      5383        41  POPC      O12            -8.9040397420       -8.3728727239      -18.5753961232  MEMB      41              0.0000000000
      5384        41  POPC      O11            -9.4450800534       -8.6477906015      -16.0285523343  MEMB      41              0.0000000000
      5385        41  POPC      C1            -10.8111369584       -8.7791845451      -16.5161503130  MEMB      41              0.0000000000
      5386        41  POPC      HA            -10.9842208871       -9.8278250630      -16.8397487879  MEMB      41              0.0000000000
      5387        41  POPC      HB            -11.0272416290       -8.0419238397      -17.3186877609  MEMB      41              0.0000000000
      5388        41  POPC      C2            -11.7210709193       -8.3471500696      -15.3795471368  MEMB      41              0.0000000000
      5389        41  POPC      HS            -12.7905878546       -8.3292763177      -15.6797720199  MEMB      41              0.0000000000
      5390        41  POPC      O21           -11.2684823366       -7.1228496228      -14.7255352228  MEMB      41              0.0000000000
      5391        41  POPC      C21           -11.8035009959       -5.9840176916      -15.2342358351  MEMB      41              0.0000000000
      5392        41  POPC      O22           -12.6651146170       -5.9945635294      -16.1513045017  MEMB      41              0.0000000000
      5393        41  POPC      C22           -11.2548566800       -4.6730483516      -14.6505212124  MEMB      41              0.0000000000
      5394        41  POPC      H2R           -10.7036502133       -4.8586199329      -13.7039190578  MEMB      41              0.0000000000
      5395        41  POPC      H2S           -12.0725400235       -3.9392256600      -14.4855395547  MEMB      41              0.0000000000
      5396        41  POPC      C3            -11.6117576628       -9.5290265335      -14.3257283324  MEMB      41              0.0000000000
      5397        41  POPC      HX            -10.5463464800       -9.8282041218      -14.2271751824  MEMB      41              0.0000000000
      5398        41  POPC      HY            -12.0974810105      -10.4372817077      -14.7422209821  MEMB      41              0.0000000000
      5399        41  POPC      O31           -12.1917760404       -9.1429226881      -13.0373337728  MEMB      41              0.0000000000
      5400        41  POPC      C31           -13.4834252809       -8.9272184886      -12.9379193563  MEMB      41              0.0000000000
      5401        41  POPC      O32           -14.3029917288       -8.8046178541      -13.8377097171  MEMB      41              0.0000000000
      5402        41  POPC      C32           -13.8959749728       -8.7952705820      -11.4725120785  MEMB      41              0.0000000000
      5403        41  POPC      H2X           -14.2236069504       -9.8022521880      -11.1364081615  MEMB      41              0.0000000000
      5404        41  POPC      H2Y           -14.7753905664       -8.1213642236      -11.3900516755  MEMB      41              0.0000000000
      5405        41  POPC      C23           -10.4055943396       -4.0425608782      -15.7978812741  MEMB      41              0.0000000000
      5406        41  POPC      H3R           -11.1408258983       -3.6277621522      -16.5201677097  MEMB      41              0.0000000000
      5407        41  POPC      H3S            -9.8089775734       -4.8137750595      -16.3304205420  MEMB      41              0.0000000000
      5408        41  POPC      C24            -9.4659477151       -2.8129136168      -15.4561912826  MEMB      41              0.0000000000
      5409        41  POPC      H4R           -10.1796247088       -2.1338166024      -14.9425633083  MEMB      41              0.0000000000
      5410        41  POPC      H4S            -9.1793566984       -2.3499553734      -16.4246211390  MEMB      41              0.0000000000
      5411        41  POPC      C25            -8.3301058981       -3.0184836042      -14.4984821663  MEMB      41              0.0000000000
      5412        41  POPC      H5R            -8.4988979369       -3.3508042549      -13.4518718585  MEMB      41              0.0000000000
      5413        41  POPC      H5S            -7.7142477364       -2.1051769889      -14.3538777551  MEMB      41              0.0000000000
      5414        41  POPC      C26            -7.4341889672       -4.1239170520      -15.0525345079  MEMB      41              0.0000000000
      5415        41  POPC      H6R            -7.1770915153       -3.8247316351      -16.0911441802  MEMB      41              0.0000000000
      5416        41  POPC      H6S            -7.9438841334       -5.1102161502      -15.0943186984  MEMB      41              0.0000000000
      5417        41  POPC      C27            -6.1540173264       -4.4774673130      -14.2344233723  MEMB      41              0.0000000000
      5418        41  POPC      H7R            -5.4128735348       -3.6851947976      -14.4738617911  MEMB      41              0.0000000000
      5419        41  POPC      H7S            -5.7283406293       -5.3467947317      -14.7797582261  MEMB      41              0.0000000000
      5420        41  POPC      C28            -6.2604891757       -4.9707627247      -12.7443509528  MEMB      41              0.0000000000
      5421        41  POPC      H8R            -6.5594941558       -4.0318546866      -12.2311558878  MEMB      41              0.0000000000
      5422        41  POPC      H8S            -5.1985520589       -5.1820995510      -12.4954584578  MEMB      41              0.0000000000
      5423        41  POPC      C29            -7.1408709717       -6.1785789361      -12.6082719247  MEMB      41              0.0000000000
      5424        41  POPC      H91            -6.8744589539       -7.0792612017      -13.1808064499  MEMB      41              0.0000000000
      5425        41  POPC      C210           -8.2587137323       -6.2266638700      -11.8795000173  MEMB      41              0.0000000000
      5426        41  POPC      H101           -8.7775865373       -7.1835777898      -11.7211125709  MEMB      41              0.0000000000
      5427        41  POPC      C211           -8.9955056425       -5.1548242226      -11.0488219944  MEMB      41              0.0000000000
      5428        41  POPC      H11R          -10.0125727917       -4.9288575948      -11.4346130566  MEMB      41              0.0000000000
      5429        41  POPC      H11S           -8.3760133136       -4.2491020073      -10.8749902457  MEMB      41              0.0000000000
      5430        41  POPC      C212           -9.3667789908       -5.5967919088       -9.5819062473  MEMB      41              0.0000000000
      5431        41  POPC      H12R           -9.6784205563       -6.6624045411       -9.5410378328  MEMB      41              0.0000000000
      5432        41  POPC      H12S          -10.2382312118       -5.0315235323       -9.1877440122  MEMB      41              0.0000000000
      5433        41  POPC      C213           -8.2377677540       -5.4763188431       -8.5683329598  MEMB      41              0.0000000000
      5434        41  POPC      H13R           -7.7641148161       -4.4785714385       -8.4480247368  MEMB      41              0.0000000000
      5435        41  POPC      H13S           -7.4170773757       -6.1210422915       -8.9492789214  MEMB      41              0.0000000000
      5436        41  POPC      C214           -8.6781506343       -6.0082406436       -7.1869925622  MEMB      41              0.0000000000
      5437        41  POPC      H14R           -8.9911917266       -7.0701615414       -7.2800007382  MEMB      41              0.0000000000
      5438        41  POPC      H14S           -9.5243782853       -5.3556648530       -6.8830763684  MEMB      41              0.0000000000
      5439        41  POPC      C215           -7.5774732321       -5.9486140679       -6.2210582325  MEMB      41              0.0000000000
      5440        41  POPC      H15R           -6.9641925180       -5.0242407568       -6.2822224013  MEMB      41              0.0000000000
      5441        41  POPC      H15S           -6.7585942609       -6.6646184331       -6.4471030962  MEMB      41              0.0000000000
      5442        41  POPC      C216           -7.9242604900       -6.2505580036       -4.7529796966  MEMB      41              0.0000000000
      5443        41  POPC      H16R           -7.0953768686       -5.8362470479       -4.1401019193  MEMB      41              0.0000000000
      5444        41  POPC      H16S           -7.9248960514       -7.3517904877       -4.6059837936  MEMB      41              0.0000000000
      5445        41  POPC      C217           -9.3517673710       -5.7662744755       -4.2676370432  MEMB      41              0.0000000000
      5446        41  POPC      H17R          -10.1285111849       -6.3000931775       -4.8558776773  MEMB      41              0.0000000000
      5447        41  POPC      H17S           -9.5374536918       -4.7021098706       -4.5272429679  MEMB      41              0.0000000000
      5448        41  POPC      C218           -9.5046079633       -5.9297576481       -2.7812941823  MEMB      41              0.0000000000
      5449        41  POPC      H18R           -9.0484491904       -5.1203460294       -2.1721197225  MEMB      41              0.0000000000
      5450        41  POPC      H18S           -9.1591480352       -6.9204879985       -2.4160110531  MEMB      41              0.0000000000
      5451        41  POPC      H18T          -10.5893418513       -5.9168972833       -2.5414845991  MEMB      41              0.0000000000
      5452        41  POPC      C33           -12.7913798198       -8.2668792356      -10.4908670383  MEMB      41              0.0000000000
      5453        41  POPC      H3X           -12.5644213260       -7.1953091243      -10.6767390836  MEMB      41              0.0000000000
      5454        41  POPC      H3Y           -11.8678372905       -8.8327060790      -10.7383155081  MEMB      41              0.0000000000
      5455        41  POPC      C34           -13.0643834790       -8.3579842229       -9.0102547774  MEMB      41              0.0000000000
      5456        41  POPC      H4X           -13.5075795620       -9.3174278223       -8.6676678395  MEMB      41              0.0000000000
      5457        41  POPC      H4Y           -13.9724720068       -7.7183851230       -8.9855776150  MEMB      41              0.0000000000
      5458        41  POPC      C35           -11.9906185363       -7.8478885203       -8.0014622541  MEMB      41              0.0000000000
      5459        41  POPC      H5X           -11.7051054583       -6.8137228091       -8.2900872737  MEMB      41              0.0000000000
      5460        41  POPC      H5Y           -11.0345766683       -8.3879738000       -8.1706156460  MEMB      41              0.0000000000
      5461        41  POPC      C36           -12.3797129822       -7.8928256472       -6.5290762603  MEMB      41              0.0000000000
      5462        41  POPC      H6X           -11.5407988136       -7.5398949209       -5.8919074776  MEMB      41              0.0000000000
      5463        41  POPC      H6Y           -12.6333488617       -8.9020241709       -6.1398354287  MEMB      41              0.0000000000
      5464        41  POPC      C37           -13.6457949382       -6.9941936836       -6.3147983564  MEMB      41              0.0000000000
      5465        41  POPC      H7X           -14.5610490970       -7.5261776395       -6.6518797325  MEMB      41              0.0000000000
      5466        41  POPC      H7Y           -13.6641675986       -6.0472443227       -6.8955475538  MEMB      41              0.0000000000
      5467        41  POPC      C38           -13.9544388353       -6.5956759587       -4.8437686273  MEMB      41              0.0000000000
      5468        41  POPC      H8X           -14.8965807121       -6.0077735575       -4.8112023198  MEMB      41              0.0000000000
      5469        41  POPC      H8Y           -13.1235465926       -6.1131913353       -4.2859623245  MEMB      41              0.0000000000
      5470        41  POPC      C39           -14.3170530739       -7.7909161986       -3.9248149652  MEMB      41              0.0000000000
      5471        41  POPC      H9X           -13.4738510035       -8.5139390027       -3.9486718417  MEMB      41              0.0000000000
      5472        41  POPC      H9Y           -15.1923865691       -8.2969440702       -4.3853013766  MEMB      41              0.0000000000
      5473        41  POPC      C310          -14.5773995757       -7.4865436140       -2.4479771963  MEMB      41              0.0000000000
      5474        41  POPC      H10X          -15.4407331302       -6.7873041456       -2.4415892392  MEMB      41              0.0000000000
      5475        41  POPC      H10Y          -13.7422960942       -6.8868260589       -2.0269521525  MEMB      41              0.0000000000
      5476        41  POPC      C311          -14.7997189521       -8.6993723959       -1.5622188371  MEMB      41              0.0000000000
      5477        41  POPC      H11X          -15.5072818053       -9.3665070344       -2.0994414243  MEMB      41              0.0000000000
      5478        41  POPC      H11Y          -15.2236698435       -8.3252525217       -0.6058612619  MEMB      41              0.0000000000
      5479        41  POPC      C312          -13.5668268349       -9.5747929875       -1.3664284060  MEMB      41              0.0000000000
      5480        41  POPC      H12X          -13.1172737648       -9.8133056837       -2.3540180507  MEMB      41              0.0000000000
      5481        41  POPC      H12Y          -13.9387088800      -10.4877246632       -0.8540007271  MEMB      41              0.0000000000
      5482        41  POPC      C313          -12.5792627422       -8.8123820359       -0.4603590204  MEMB      41              0.0000000000
      5483        41  POPC      H13X          -13.1334149369       -8.2174404132        0.2967922381  MEMB      41              0.0000000000
      5484        41  POPC      H13Y          -11.9790614688       -8.0710202659       -1.0299759201  MEMB      41              0.0000000000
      5485        41  POPC      C314          -11.4708934269       -9.6143688271        0.3019760443  MEMB      41              0.0000000000
      5486        41  POPC      H14X          -10.7322139536       -8.8129298720        0.5173112442  MEMB      41              0.0000000000
      5487        41  POPC      H14Y          -10.9570649783      -10.2794927825       -0.4245979024  MEMB      41              0.0000000000
      5488        41  POPC      C315          -11.9150333886      -10.4537495635        1.4500554439  MEMB      41              0.0000000000
      5489        41  POPC      H15X          -12.3632907662      -11.3790484309        1.0290931743  MEMB      41              0.0000000000
      5490        41  POPC      H15Y          -12.7286961141      -10.0782639568        2.1067787637  MEMB      41              0.0000000000
      5491        41  POPC      C316          -10.8082115805      -11.1569719603        2.2264600392  MEMB      41              0.0000000000
      5492        41  POPC      H16X          -10.2049939764      -10.4445429323        2.8288664839  MEMB      41              0.0000000000
      5493        41  POPC      H16Y          -10.0851072175      -11.7152543251        1.5941910788  MEMB      41              0.0000000000
      5494        41  POPC      H16Z          -11.1544508598      -11.8826353649        2.9931749195  MEMB      41              0.0000000000
      5495        42  POPC      N              -1.5544257485      -14.3751386315      -20.6423141367  MEMB      42              0.0000000000
      5496        42  POPC      C12            -0.9325588565      -14.0562660495      -19.2510472034  MEMB      42              0.0000000000
      5497        42  POPC      H12A            0.1011476085      -13.7771234097      -19.3922226551  MEMB      42              0.0000000000
      5498        42  POPC      H12B           -0.9087702053      -14.9592243772      -18.6590164237  MEMB      42              0.0000000000
      5499        42  POPC      C13            -0.7515826101      -15.3610692034      -21.3441029999  MEMB      42              0.0000000000
      5500        42  POPC      H13A           -0.6991685200      -16.3356261879      -20.8816189996  MEMB      42              0.0000000000
      5501        42  POPC      H13B           -0.9660734098      -15.6062750484      -22.3737960377  MEMB      42              0.0000000000
      5502        42  POPC      H13C            0.2270368307      -14.9787148025      -21.5941218027  MEMB      42              0.0000000000
      5503        42  POPC      C14            -2.8556578195      -14.9710498839      -20.4412644877  MEMB      42              0.0000000000
      5504        42  POPC      H14A           -2.7850745418      -15.8937650735      -19.8844746641  MEMB      42              0.0000000000
      5505        42  POPC      H14B           -3.5633084572      -14.3196051476      -19.9500920204  MEMB      42              0.0000000000
      5506        42  POPC      H14C           -3.3410852675      -15.2754378434      -21.3567470229  MEMB      42              0.0000000000
      5507        42  POPC      C15            -1.6877060770      -13.1019168585      -21.5184362425  MEMB      42              0.0000000000
      5508        42  POPC      H15A           -0.7313566312      -12.8656240748      -21.9611120247  MEMB      42              0.0000000000
      5509        42  POPC      H15B           -1.8712154698      -12.2837423821      -20.8377640186  MEMB      42              0.0000000000
      5510        42  POPC      H15C           -2.4456671385      -13.1667046000      -22.2850506798  MEMB      42              0.0000000000
      5511        42  POPC      C11            -1.6198924708      -12.9379986032      -18.4156431291  MEMB      42              0.0000000000
      5512        42  POPC      H11A           -1.6771173046      -12.0665105488      -19.1023416300  MEMB      42              0.0000000000
      5513        42  POPC      H11B           -0.9420735956      -12.6759212601      -17.5752873396  MEMB      42              0.0000000000
      5514        42  POPC      P              -3.8523538541      -12.3190641304      -17.4706540561  MEMB      42              0.0000000000
      5515        42  POPC      O13            -4.2460167107      -11.3872758995      -18.5524716491  MEMB      42              0.0000000000
      5516        42  POPC      O14            -3.3057357629      -11.6914003703      -16.2760132574  MEMB      42              0.0000000000
      5517        42  POPC      O12            -2.8515208963      -13.4343050047      -18.0475766532  MEMB      42              0.0000000000
      5518        42  POPC      O11            -5.1275250871      -13.1049278175      -17.0404762226  MEMB      42              0.0000000000
      5519        42  POPC      C1             -6.0419256121      -13.5850331586      -18.0394354197  MEMB      42              0.0000000000
      5520        42  POPC      HA             -5.6569324851      -13.6413625705      -19.0800738064  MEMB      42              0.0000000000
      5521        42  POPC      HB             -6.8386179999      -12.8108448052      -18.0547602003  MEMB      42              0.0000000000
      5522        42  POPC      C2             -6.7831825671      -14.9902444014      -17.7103997462  MEMB      42              0.0000000000
      5523        42  POPC      HS             -7.7594360321      -14.9524597678      -18.2393820749  MEMB      42              0.0000000000
      5524        42  POPC      O21            -6.8873315369      -15.1152574218      -16.2548931674  MEMB      42              0.0000000000
      5525        42  POPC      C21            -7.5372070183      -14.1219191066      -15.6434967860  MEMB      42              0.0000000000
      5526        42  POPC      O22            -8.1264950786      -13.1950133422      -16.1731999348  MEMB      42              0.0000000000
      5527        42  POPC      C22            -7.2535441276      -14.2295436001      -14.1458623046  MEMB      42              0.0000000000
      5528        42  POPC      H2R            -7.0196331659      -15.2793533420      -13.8674634204  MEMB      42              0.0000000000
      5529        42  POPC      H2S            -8.1922075515      -13.9440714245      -13.6245774242  MEMB      42              0.0000000000
      5530        42  POPC      C3             -5.8444166595      -16.1288138488      -18.2416309471  MEMB      42              0.0000000000
      5531        42  POPC      HX             -5.8171245220      -16.1205910496      -19.3522652234  MEMB      42              0.0000000000
      5532        42  POPC      HY             -6.3017288445      -17.1297839196      -18.0891664009  MEMB      42              0.0000000000
      5533        42  POPC      O31            -4.4975820868      -15.9908799244      -17.6992402912  MEMB      42              0.0000000000
      5534        42  POPC      C31            -4.1803300795      -16.7256569590      -16.5660802793  MEMB      42              0.0000000000
      5535        42  POPC      O32            -5.0255817502      -17.4817617341      -16.0282292351  MEMB      42              0.0000000000
      5536        42  POPC      C32            -2.8418590385      -16.3427532318      -15.9978429562  MEMB      42              0.0000000000
      5537        42  POPC      H2X            -2.8689889274      -15.2320968859      -15.9925966169  MEMB      42              0.0000000000
      5538        42  POPC      H2Y            -1.9567602621      -16.7078835072      -16.5614038164  MEMB      42              0.0000000000
      5539        42  POPC      C23            -6.2329153327      -13.2559843631      -13.7068130669  MEMB      42              0.0000000000
      5540        42  POPC      H3R            -6.5084768268      -12.1884476309      -13.8437522277  MEMB      42              0.0000000000
      5541        42  POPC      H3S            -5.2756094989      -13.2193110213      -14.2694335920  MEMB      42              0.0000000000
      5542        42  POPC      C24            -5.7965164246      -13.4168233487      -12.2397584609  MEMB      42              0.0000000000
      5543        42  POPC      H4R            -4.7579103299      -13.0340502430      -12.1443483742  MEMB      42              0.0000000000
      5544        42  POPC      H4S            -5.7260084562      -14.4884539367      -11.9552277825  MEMB      42              0.0000000000
      5545        42  POPC      C25            -6.7171285770      -12.6363191009      -11.3234133015  MEMB      42              0.0000000000
      5546        42  POPC      H5R            -7.6837254075      -13.1269380555      -11.0798880113  MEMB      42              0.0000000000
      5547        42  POPC      H5S            -6.8918756208      -11.6433368736      -11.7900727864  MEMB      42              0.0000000000
      5548        42  POPC      C26            -6.0062439304      -12.2327549683      -10.0068401617  MEMB      42              0.0000000000
      5549        42  POPC      H6R            -6.6662612429      -11.5304068459       -9.4542050771  MEMB      42              0.0000000000
      5550        42  POPC      H6S            -5.1241200417      -11.5712129257      -10.1430021445  MEMB      42              0.0000000000
      5551        42  POPC      C27            -5.6622578529      -13.4424035621       -9.0404887145  MEMB      42              0.0000000000
      5552        42  POPC      H7R            -5.6016535592      -13.0175155803       -8.0157360606  MEMB      42              0.0000000000
      5553        42  POPC      H7S            -4.7602256380      -13.9734615097       -9.4128278722  MEMB      42              0.0000000000
      5554        42  POPC      C28            -6.8168896542      -14.4073973471       -8.7803208343  MEMB      42              0.0000000000
      5555        42  POPC      H8R            -7.0210860011      -15.0472483282       -9.6653157331  MEMB      42              0.0000000000
      5556        42  POPC      H8S            -7.6900366570      -13.7742384435       -8.5137770299  MEMB      42              0.0000000000
      5557        42  POPC      C29            -6.5320352569      -15.3172433596       -7.6240908200  MEMB      42              0.0000000000
      5558        42  POPC      H91            -6.0667527283      -16.2700474550       -7.9167968407  MEMB      42              0.0000000000
      5559        42  POPC      C210           -6.6571167823      -14.9644981432       -6.3435243897  MEMB      42              0.0000000000
      5560        42  POPC      H101           -6.2962280863      -15.6885199311       -5.5981713790  MEMB      42              0.0000000000
      5561        42  POPC      C211           -7.1439202537      -13.5636531169       -5.7888497313  MEMB      42              0.0000000000
      5562        42  POPC      H11R           -7.1999661869      -12.7513867160       -6.5447624118  MEMB      42              0.0000000000
      5563        42  POPC      H11S           -6.4613388939      -13.2541993201       -4.9687020057  MEMB      42              0.0000000000
      5564        42  POPC      C212           -8.5051403935      -13.8106220485       -5.1631946897  MEMB      42              0.0000000000
      5565        42  POPC      H12R           -9.2018255675      -14.2257249203       -5.9225634530  MEMB      42              0.0000000000
      5566        42  POPC      H12S           -8.9440911581      -12.8757642541       -4.7537023616  MEMB      42              0.0000000000
      5567        42  POPC      C213           -8.5232184989      -14.8758844787       -4.0245438482  MEMB      42              0.0000000000
      5568        42  POPC      H13R           -8.2797515486      -15.8995825827       -4.3810367066  MEMB      42              0.0000000000
      5569        42  POPC      H13S           -9.5969410019      -14.8390438847       -3.7415554256  MEMB      42              0.0000000000
      5570        42  POPC      C214           -7.6351114488      -14.5040116456       -2.8292244824  MEMB      42              0.0000000000
      5571        42  POPC      H14R           -6.5793686489      -14.8130237433       -2.9849176938  MEMB      42              0.0000000000
      5572        42  POPC      H14S           -7.8031415283      -15.2740799318       -2.0462301425  MEMB      42              0.0000000000
      5573        42  POPC      C215           -7.7916526969      -13.1364507480       -2.1829917391  MEMB      42              0.0000000000
      5574        42  POPC      H15R           -8.8762750339      -12.8967695323       -2.2046236212  MEMB      42              0.0000000000
      5575        42  POPC      H15S           -7.1873700582      -12.4587053856       -2.8231679406  MEMB      42              0.0000000000
      5576        42  POPC      C216           -7.2749948534      -12.9923910370       -0.7088932103  MEMB      42              0.0000000000
      5577        42  POPC      H16R           -7.0777560059      -11.9268483431       -0.4638702727  MEMB      42              0.0000000000
      5578        42  POPC      H16S           -6.3468386168      -13.5836534369       -0.8613922474  MEMB      42              0.0000000000
      5579        42  POPC      C217           -8.1068150468      -13.6106366122        0.4372574312  MEMB      42              0.0000000000
      5580        42  POPC      H17R           -7.5406870381      -13.3397812843        1.3540230786  MEMB      42              0.0000000000
      5581        42  POPC      H17S           -8.0759820504      -14.7107539909        0.2852313021  MEMB      42              0.0000000000
      5582        42  POPC      C218           -9.5519819480      -13.0519333868        0.5414219516  MEMB      42              0.0000000000
      5583        42  POPC      H18R           -9.6921151475      -11.9498169537        0.5365929569  MEMB      42              0.0000000000
      5584        42  POPC      H18S           -9.9415593891      -13.4376536394        1.5077393719  MEMB      42              0.0000000000
      5585        42  POPC      H18T          -10.1725291234      -13.5081939107       -0.2592461520  MEMB      42              0.0000000000
      5586        42  POPC      C33            -2.6983427941      -16.8333225900      -14.5466350790  MEMB      42              0.0000000000
      5587        42  POPC      H3X            -2.4999209675      -17.9264603497      -14.5464679592  MEMB      42              0.0000000000
      5588        42  POPC      H3Y            -3.6873916011      -16.7619873926      -14.0456211267  MEMB      42              0.0000000000
      5589        42  POPC      C34            -1.5576915945      -16.0848266619      -13.8009133843  MEMB      42              0.0000000000
      5590        42  POPC      H4X            -1.8318316159      -15.0106517571      -13.8738288794  MEMB      42              0.0000000000
      5591        42  POPC      H4Y            -0.5343905805      -16.1070861142      -14.2329788983  MEMB      42              0.0000000000
      5592        42  POPC      C35            -1.4038878074      -16.4669574885      -12.2917142413  MEMB      42              0.0000000000
      5593        42  POPC      H5X            -0.6176682336      -15.7278225060      -12.0274050525  MEMB      42              0.0000000000
      5594        42  POPC      H5Y            -1.0233906545      -17.5095514211      -12.2413143564  MEMB      42              0.0000000000
      5595        42  POPC      C36            -2.6947963483      -16.2327567109      -11.5325195979  MEMB      42              0.0000000000
      5596        42  POPC      H6X            -3.4004517757      -16.9798587710      -11.9546686352  MEMB      42              0.0000000000
      5597        42  POPC      H6Y            -3.0516781638      -15.2015300484      -11.7411537572  MEMB      42              0.0000000000
      5598        42  POPC      C37            -2.6195442899      -16.4258357119      -10.0415094634  MEMB      42              0.0000000000
      5599        42  POPC      H7X            -2.2198837545      -17.4467039599       -9.8614540974  MEMB      42              0.0000000000
      5600        42  POPC      H7Y            -3.6642518792      -16.4063309313       -9.6639821057  MEMB      42              0.0000000000
      5601        42  POPC      C38            -1.8885058180      -15.3787355341       -9.2542225516  MEMB      42              0.0000000000
      5602        42  POPC      H8X            -2.3427836033      -14.3843577501       -9.4521252434  MEMB      42              0.0000000000
      5603        42  POPC      H8Y            -0.8294570467      -15.3129347112       -9.5834744684  MEMB      42              0.0000000000
      5604        42  POPC      C39            -1.9926568631      -15.6136583620       -7.7301039565  MEMB      42              0.0000000000
      5605        42  POPC      H9X            -1.0807358706      -16.1944537832       -7.4743741733  MEMB      42              0.0000000000
      5606        42  POPC      H9Y            -2.7840543100      -16.2736654503       -7.3148909929  MEMB      42              0.0000000000
      5607        42  POPC      C310           -2.1059775653      -14.2670221537       -6.9960424834  MEMB      42              0.0000000000
      5608        42  POPC      H10X           -3.1207730007      -13.9300350980       -7.2976231305  MEMB      42              0.0000000000
      5609        42  POPC      H10Y           -1.3473937059      -13.5990651255       -7.4572417055  MEMB      42              0.0000000000
      5610        42  POPC      C311           -1.8900525191      -14.3648753720       -5.4424292324  MEMB      42              0.0000000000
      5611        42  POPC      H11X           -1.8884860820      -13.3495593413       -4.9913726479  MEMB      42              0.0000000000
      5612        42  POPC      H11Y           -0.8312719145      -14.6490168147       -5.2619623218  MEMB      42              0.0000000000
      5613        42  POPC      C312           -2.9461703344      -15.2505596827       -4.7390207701  MEMB      42              0.0000000000
      5614        42  POPC      H12X           -3.0848479615      -16.2086095690       -5.2842091088  MEMB      42              0.0000000000
      5615        42  POPC      H12Y           -3.8961900519      -14.6767748374       -4.7895597860  MEMB      42              0.0000000000
      5616        42  POPC      C313           -2.6941202100      -15.5057208207       -3.2443274147  MEMB      42              0.0000000000
      5617        42  POPC      H13X           -1.6167029294      -15.7397022940       -3.1074128039  MEMB      42              0.0000000000
      5618        42  POPC      H13Y           -3.2064569521      -16.4375777844       -2.9226537344  MEMB      42              0.0000000000
      5619        42  POPC      C314           -3.1215165900      -14.3653667423       -2.3454753862  MEMB      42              0.0000000000
      5620        42  POPC      H14X           -4.2282405151      -14.2950641425       -2.2780904623  MEMB      42              0.0000000000
      5621        42  POPC      H14Y           -2.6176360394      -13.4959618909       -2.8193527674  MEMB      42              0.0000000000
      5622        42  POPC      C315           -2.7257441697      -14.4814807785       -0.8642396505  MEMB      42              0.0000000000
      5623        42  POPC      H15X           -1.6149210679      -14.5001726830       -0.8576136942  MEMB      42              0.0000000000
      5624        42  POPC      H15Y           -3.2650394699      -15.3194219190       -0.3729790537  MEMB      42              0.0000000000
      5625        42  POPC      C316           -2.9770319414      -13.1657929691       -0.0774674814  MEMB      42              0.0000000000
      5626        42  POPC      H16X           -2.5505689169      -12.2895223595       -0.6109475688  MEMB      42              0.0000000000
      5627        42  POPC      H16Y           -2.5775886166      -13.5082321200        0.9010526039  MEMB      42              0.0000000000
      5628        42  POPC      H16Z           -4.0743677130      -12.9920901958       -0.0790114767  MEMB      42              0.0000000000
      5629        43  POPC      N             -12.3519376719        5.9726104285      -18.3049175065  MEMB      43              0.0000000000
      5630        43  POPC      C12           -12.7945946498        4.8409694836      -19.2177342678  MEMB      43              0.0000000000
      5631        43  POPC      H12A          -12.3057815618        3.9011764893      -19.0073754537  MEMB      43              0.0000000000
      5632        43  POPC      H12B          -12.4817698348        4.9720363922      -20.2430938072  MEMB      43              0.0000000000
      5633        43  POPC      C13           -12.8105780366        7.3185169085      -18.7036848853  MEMB      43              0.0000000000
      5634        43  POPC      H13A          -12.7719823066        7.3640803888      -19.7820328732  MEMB      43              0.0000000000
      5635        43  POPC      H13B          -13.8404059838        7.4467606115      -18.4046727580  MEMB      43              0.0000000000
      5636        43  POPC      H13C          -12.1604438397        8.0441640674      -18.2376789823  MEMB      43              0.0000000000
      5637        43  POPC      C14           -12.5994665936        5.8228671801      -16.8559715025  MEMB      43              0.0000000000
      5638        43  POPC      H14A          -12.2088891362        6.6445505528      -16.2740040930  MEMB      43              0.0000000000
      5639        43  POPC      H14B          -13.6384228711        5.6733165480      -16.6017973384  MEMB      43              0.0000000000
      5640        43  POPC      H14C          -12.0680846081        4.9580774960      -16.4869564591  MEMB      43              0.0000000000
      5641        43  POPC      C15           -10.8673205797        5.9290950737      -18.5371433193  MEMB      43              0.0000000000
      5642        43  POPC      H15A          -10.5312287414        6.1593668194      -19.5373517886  MEMB      43              0.0000000000
      5643        43  POPC      H15B          -10.4323239657        5.0062129882      -18.1829307874  MEMB      43              0.0000000000
      5644        43  POPC      H15C          -10.4306940250        6.7197100506      -17.9449566644  MEMB      43              0.0000000000
      5645        43  POPC      C11           -14.3114782395        4.5468965989      -19.1935746611  MEMB      43              0.0000000000
      5646        43  POPC      H11A          -14.5358943784        4.4712428198      -18.1081093753  MEMB      43              0.0000000000
      5647        43  POPC      H11B          -14.3582669239        3.5879154609      -19.7525801510  MEMB      43              0.0000000000
      5648        43  POPC      P             -16.6097604377        5.6946228337      -19.7096438343  MEMB      43              0.0000000000
      5649        43  POPC      O13           -17.2362839748        4.4623277537      -20.2217947945  MEMB      43              0.0000000000
      5650        43  POPC      O14           -16.9770233447        6.9663119598      -20.3499951881  MEMB      43              0.0000000000
      5651        43  POPC      O12           -15.0238359728        5.5808746120      -19.8397182788  MEMB      43              0.0000000000
      5652        43  POPC      O11           -16.7626720980        5.8346134166      -18.0658217603  MEMB      43              0.0000000000
      5653        43  POPC      C1            -17.1943198903        4.7846939220      -17.2138618133  MEMB      43              0.0000000000
      5654        43  POPC      HA            -16.8691266964        3.7675539204      -17.5204504084  MEMB      43              0.0000000000
      5655        43  POPC      HB            -18.3015976175        4.7076091598      -17.2619763270  MEMB      43              0.0000000000
      5656        43  POPC      C2            -16.9966131831        5.0869327317      -15.6951334827  MEMB      43              0.0000000000
      5657        43  POPC      HS            -17.9508743806        5.5298566530      -15.3380270134  MEMB      43              0.0000000000
      5658        43  POPC      O21           -15.9204308510        6.0511144143      -15.6062826245  MEMB      43              0.0000000000
      5659        43  POPC      C21           -15.9913036763        6.9417238680      -14.5679025929  MEMB      43              0.0000000000
      5660        43  POPC      O22           -16.8381998053        6.9509671742      -13.7307866080  MEMB      43              0.0000000000
      5661        43  POPC      C22           -14.7274839451        7.7976423848      -14.6405742258  MEMB      43              0.0000000000
      5662        43  POPC      H2R           -14.8359407508        8.3499516087      -15.5984427445  MEMB      43              0.0000000000
      5663        43  POPC      H2S           -13.9367825603        7.0223804032      -14.7304695654  MEMB      43              0.0000000000
      5664        43  POPC      C3            -16.6348084955        3.7466593929      -14.9319345921  MEMB      43              0.0000000000
      5665        43  POPC      HX            -15.8935786313        3.1122607569      -15.4633832693  MEMB      43              0.0000000000
      5666        43  POPC      HY            -17.5705052390        3.1485098282      -14.9637083188  MEMB      43              0.0000000000
      5667        43  POPC      O31           -16.3540349719        4.0063914201      -13.5347914765  MEMB      43              0.0000000000
      5668        43  POPC      C31           -17.3007224476        3.8993079152      -12.6387511878  MEMB      43              0.0000000000
      5669        43  POPC      O32           -18.3968903648        3.4826906922      -12.8781230491  MEMB      43              0.0000000000
      5670        43  POPC      C32           -16.9271904371        4.5935500276      -11.2835580574  MEMB      43              0.0000000000
      5671        43  POPC      H2X           -16.5832313891        5.6209642570      -11.5293899583  MEMB      43              0.0000000000
      5672        43  POPC      H2Y           -16.0300826568        4.0137955887      -10.9779383951  MEMB      43              0.0000000000
      5673        43  POPC      C23           -14.5959874717        8.5405177888      -13.3169230142  MEMB      43              0.0000000000
      5674        43  POPC      H3R           -15.6135067388        8.8723145375      -13.0187841886  MEMB      43              0.0000000000
      5675        43  POPC      H3S           -14.0282897031        9.4523164036      -13.6009362594  MEMB      43              0.0000000000
      5676        43  POPC      C24           -13.7929509105        7.8479621980      -12.1552484853  MEMB      43              0.0000000000
      5677        43  POPC      H4R           -12.8178234152        7.4272650754      -12.4815326368  MEMB      43              0.0000000000
      5678        43  POPC      H4S           -14.4151412029        6.9390299951      -12.0101883073  MEMB      43              0.0000000000
      5679        43  POPC      C25           -13.7468597358        8.7181041436      -10.9177056891  MEMB      43              0.0000000000
      5680        43  POPC      H5R           -14.7536245675        9.1107992399      -10.6597588829  MEMB      43              0.0000000000
      5681        43  POPC      H5S           -13.0113123782        9.5043918849      -11.1916436016  MEMB      43              0.0000000000
      5682        43  POPC      C26           -13.1640862070        8.0677043179       -9.6623790853  MEMB      43              0.0000000000
      5683        43  POPC      H6R           -12.1547720694        7.6292737706       -9.8152996315  MEMB      43              0.0000000000
      5684        43  POPC      H6S           -13.8714683018        7.2562122678       -9.3877667850  MEMB      43              0.0000000000
      5685        43  POPC      C27           -13.0194099919        9.0076931981       -8.4077746621  MEMB      43              0.0000000000
      5686        43  POPC      H7R           -12.2984199974        9.8051724163       -8.6879906459  MEMB      43              0.0000000000
      5687        43  POPC      H7S           -12.4636914939        8.4076657774       -7.6558004973  MEMB      43              0.0000000000
      5688        43  POPC      C28           -14.3229609804        9.6767452370       -7.9873446393  MEMB      43              0.0000000000
      5689        43  POPC      H8R           -14.6264156638       10.3120103386       -8.8468065077  MEMB      43              0.0000000000
      5690        43  POPC      H8S           -14.0609774211       10.3146913328       -7.1163050049  MEMB      43              0.0000000000
      5691        43  POPC      C29           -15.3647173580        8.7500306546       -7.4576006724  MEMB      43              0.0000000000
      5692        43  POPC      H91           -16.0721841547        8.4204796347       -8.2327691228  MEMB      43              0.0000000000
      5693        43  POPC      C210          -15.5091261994        8.3156715082       -6.2112377380  MEMB      43              0.0000000000
      5694        43  POPC      H101          -16.3570244181        7.6275919054       -6.0785165515  MEMB      43              0.0000000000
      5695        43  POPC      C211          -14.6596820135        8.6529426921       -4.9558436851  MEMB      43              0.0000000000
      5696        43  POPC      H11R          -15.3375319603        8.7339745762       -4.0793314882  MEMB      43              0.0000000000
      5697        43  POPC      H11S          -14.1067031482        9.6153817168       -5.0032410564  MEMB      43              0.0000000000
      5698        43  POPC      C212          -13.6177966426        7.5413913284       -4.7000636877  MEMB      43              0.0000000000
      5699        43  POPC      H12R          -12.7639164219        7.8399357914       -4.0550208551  MEMB      43              0.0000000000
      5700        43  POPC      H12S          -13.0814025989        7.2425419249       -5.6259645724  MEMB      43              0.0000000000
      5701        43  POPC      C213          -14.2537247936        6.2959159709       -4.1128585042  MEMB      43              0.0000000000
      5702        43  POPC      H13R          -15.0054462303        5.8196911617       -4.7780244991  MEMB      43              0.0000000000
      5703        43  POPC      H13S          -14.6935855089        6.7027328273       -3.1772602787  MEMB      43              0.0000000000
      5704        43  POPC      C214          -13.3303180128        5.0965693351       -3.6731654642  MEMB      43              0.0000000000
      5705        43  POPC      H14R          -12.8749524704        4.6530984724       -4.5843710797  MEMB      43              0.0000000000
      5706        43  POPC      H14S          -13.9395459675        4.3629705455       -3.1030815270  MEMB      43              0.0000000000
      5707        43  POPC      C215          -12.0619283173        5.4488402122       -2.8595591869  MEMB      43              0.0000000000
      5708        43  POPC      H15R          -11.2313152235        5.8413873402       -3.4843071410  MEMB      43              0.0000000000
      5709        43  POPC      H15S          -11.7202302608        4.5549576134       -2.2951676483  MEMB      43              0.0000000000
      5710        43  POPC      C216          -12.3104294171        6.4560957971       -1.6930343715  MEMB      43              0.0000000000
      5711        43  POPC      H16R          -13.3871169455        6.6008374925       -1.4604089021  MEMB      43              0.0000000000
      5712        43  POPC      H16S          -11.8532915877        7.4606922861       -1.8200439626  MEMB      43              0.0000000000
      5713        43  POPC      C217          -11.6486218861        5.9992685064       -0.3270594556  MEMB      43              0.0000000000
      5714        43  POPC      H17R          -12.0765225166        5.0234912447       -0.0122891448  MEMB      43              0.0000000000
      5715        43  POPC      H17S          -11.9782075832        6.7203795665        0.4512020580  MEMB      43              0.0000000000
      5716        43  POPC      C218          -10.0604674700        5.9723064825       -0.3588277907  MEMB      43              0.0000000000
      5717        43  POPC      H18R           -9.6015183659        6.9528227698       -0.6083765974  MEMB      43              0.0000000000
      5718        43  POPC      H18S           -9.6890643261        5.2098060968       -1.0764450843  MEMB      43              0.0000000000
      5719        43  POPC      H18T           -9.6725800896        5.7563389244        0.6596130942  MEMB      43              0.0000000000
      5720        43  POPC      C33           -18.0890916331        4.4052746234      -10.2010017124  MEMB      43              0.0000000000
      5721        43  POPC      H3X           -18.4345634433        3.3540703187      -10.1013051831  MEMB      43              0.0000000000
      5722        43  POPC      H3Y           -19.0304844925        4.9451344119      -10.4390177386  MEMB      43              0.0000000000
      5723        43  POPC      C34           -17.5838768896        4.8763183717       -8.8875304728  MEMB      43              0.0000000000
      5724        43  POPC      H4X           -17.0990480541        5.8748534477       -8.9343261505  MEMB      43              0.0000000000
      5725        43  POPC      H4Y           -16.8168343496        4.1735627741       -8.4975294569  MEMB      43              0.0000000000
      5726        43  POPC      C35           -18.6057976859        4.8536865481       -7.7082698211  MEMB      43              0.0000000000
      5727        43  POPC      H5X           -19.3164948925        4.0001147015       -7.6828530827  MEMB      43              0.0000000000
      5728        43  POPC      H5Y           -19.1962956698        5.7931849725       -7.7628225892  MEMB      43              0.0000000000
      5729        43  POPC      C36           -17.9251449280        4.8477633246       -6.3502248021  MEMB      43              0.0000000000
      5730        43  POPC      H6X           -17.3788229658        5.8111666242       -6.2624334642  MEMB      43              0.0000000000
      5731        43  POPC      H6Y           -17.2474501908        3.9821417579       -6.1897570321  MEMB      43              0.0000000000
      5732        43  POPC      C37           -18.8074168220        4.7921435948       -5.1079714033  MEMB      43              0.0000000000
      5733        43  POPC      H7X           -19.6513014928        4.0862715761       -5.2626463228  MEMB      43              0.0000000000
      5734        43  POPC      H7Y           -19.0515568159        5.8469490089       -4.8587688535  MEMB      43              0.0000000000
      5735        43  POPC      C38           -17.9882581581        4.2695850347       -3.9755959947  MEMB      43              0.0000000000
      5736        43  POPC      H8X           -17.1173932485        4.9307524111       -3.7786874819  MEMB      43              0.0000000000
      5737        43  POPC      H8Y           -17.5791649367        3.2588698253       -4.1887117601  MEMB      43              0.0000000000
      5738        43  POPC      C39           -18.7696370721        4.0806906953       -2.6607969751  MEMB      43              0.0000000000
      5739        43  POPC      H9X           -18.0802403473        3.6712975045       -1.8917391498  MEMB      43              0.0000000000
      5740        43  POPC      H9Y           -19.5928924939        3.3402704838       -2.7521701347  MEMB      43              0.0000000000
      5741        43  POPC      C310          -19.3279849169        5.3777236389       -2.0829358756  MEMB      43              0.0000000000
      5742        43  POPC      H10X          -20.0612130526        5.2970988165       -1.2521548764  MEMB      43              0.0000000000
      5743        43  POPC      H10Y          -19.9474207188        5.8855359202       -2.8528356603  MEMB      43              0.0000000000
      5744        43  POPC      C311          -18.2261025967        6.3325703508       -1.5100750353  MEMB      43              0.0000000000
      5745        43  POPC      H11X          -18.5542796072        7.3836940282       -1.3625625565  MEMB      43              0.0000000000
      5746        43  POPC      H11Y          -17.3344182961        6.3014812365       -2.1720823884  MEMB      43              0.0000000000
      5747        43  POPC      C312          -17.7570618448        5.9000676159       -0.1395492228  MEMB      43              0.0000000000
      5748        43  POPC      H12X          -17.6902281744        4.7934100418       -0.0676943052  MEMB      43              0.0000000000
      5749        43  POPC      H12Y          -18.4376560627        6.3355955030        0.6229637468  MEMB      43              0.0000000000
      5750        43  POPC      C313          -16.3995098280        6.4955732975        0.1470163326  MEMB      43              0.0000000000
      5751        43  POPC      H13X          -16.4817960560        7.5752323209       -0.1017539504  MEMB      43              0.0000000000
      5752        43  POPC      H13Y          -15.6451865589        6.2779324608       -0.6390810024  MEMB      43              0.0000000000
      5753        43  POPC      C314          -15.8949323185        6.1676563612        1.5149651835  MEMB      43              0.0000000000
      5754        43  POPC      H14X          -16.5182009787        6.6248312285        2.3129916073  MEMB      43              0.0000000000
      5755        43  POPC      H14Y          -14.9802682715        6.7982473818        1.5068627246  MEMB      43              0.0000000000
      5756        43  POPC      C315          -15.5997225615        4.7062586665        1.9277402095  MEMB      43              0.0000000000
      5757        43  POPC      H15X          -15.6983867501        4.0786845172        1.0162933816  MEMB      43              0.0000000000
      5758        43  POPC      H15Y          -16.5453786109        4.3853985413        2.4146738254  MEMB      43              0.0000000000
      5759        43  POPC      C316          -14.3290242725        4.4645351725        2.7231423999  MEMB      43              0.0000000000
      5760        43  POPC      H16X          -14.2619456467        3.4634668690        3.2003060348  MEMB      43              0.0000000000
      5761        43  POPC      H16Y          -14.2590371556        5.0838021889        3.6428886290  MEMB      43              0.0000000000
      5762        43  POPC      H16Z          -13.4421652245        4.6200623860        2.0722879535  MEMB      43              0.0000000000
      5763        44  POPC      N              15.6908476689        3.3629261284      -19.5625848772  MEMB      44              0.0000000000
      5764        44  POPC      C12            16.8662760401        2.5697198128      -20.0303036315  MEMB      44              0.0000000000
      5765        44  POPC      H12A           17.6809704474        3.2257452143      -20.2991969034  MEMB      44              0.0000000000
      5766        44  POPC      H12B           16.6277826088        2.0489592741      -20.9459070091  MEMB      44              0.0000000000
      5767        44  POPC      C13            15.9777805590        3.9510233893      -18.2234934653  MEMB      44              0.0000000000
      5768        44  POPC      H13A           15.2543271511        4.6652338071      -17.8589136203  MEMB      44              0.0000000000
      5769        44  POPC      H13B           16.0449579284        3.1891728843      -17.4609509618  MEMB      44              0.0000000000
      5770        44  POPC      H13C           16.9204612050        4.4756931739      -18.2732415336  MEMB      44              0.0000000000
      5771        44  POPC      C14            15.4311582221        4.4263512677      -20.6174745804  MEMB      44              0.0000000000
      5772        44  POPC      H14A           15.1962766467        4.1954810383      -21.6460314934  MEMB      44              0.0000000000
      5773        44  POPC      H14B           14.6157732336        5.0715472615      -20.3254656373  MEMB      44              0.0000000000
      5774        44  POPC      H14C           16.1793187375        5.2027424092      -20.5552445571  MEMB      44              0.0000000000
      5775        44  POPC      C15            14.4573829047        2.5583321029      -19.4451411626  MEMB      44              0.0000000000
      5776        44  POPC      H15A           14.2069186484        2.1672936981      -20.4202086503  MEMB      44              0.0000000000
      5777        44  POPC      H15B           13.5424297575        3.0539089191      -19.1558929115  MEMB      44              0.0000000000
      5778        44  POPC      H15C           14.6520221480        1.7436028490      -18.7634287611  MEMB      44              0.0000000000
      5779        44  POPC      C11            17.5033502643        1.4503924589      -19.0317463921  MEMB      44              0.0000000000
      5780        44  POPC      H11A           17.9890859700        2.0824224328      -18.2578472561  MEMB      44              0.0000000000
      5781        44  POPC      H11B           18.2703647911        0.8398759884      -19.5545076521  MEMB      44              0.0000000000
      5782        44  POPC      P              16.3509071589       -0.8640940539      -18.4483969727  MEMB      44              0.0000000000
      5783        44  POPC      O13            17.4784468498       -1.3400967074      -17.6584461947  MEMB      44              0.0000000000
      5784        44  POPC      O14            16.1668815629       -1.3133395266      -19.8353075556  MEMB      44              0.0000000000
      5785        44  POPC      O12            16.4042789348        0.6380718439      -18.3679605256  MEMB      44              0.0000000000
      5786        44  POPC      O11            14.9079260348       -1.1472507162      -17.7791446446  MEMB      44              0.0000000000
      5787        44  POPC      C1             14.6733016215       -2.5138896083      -17.3914259149  MEMB      44              0.0000000000
      5788        44  POPC      HA             15.2333758520       -3.2738385505      -17.9771866058  MEMB      44              0.0000000000
      5789        44  POPC      HB             13.6087107551       -2.7744832880      -17.5732448598  MEMB      44              0.0000000000
      5790        44  POPC      C2             14.8043727477       -2.9420478595      -15.8674300402  MEMB      44              0.0000000000
      5791        44  POPC      HS             13.9841532143       -3.6373293265      -15.5878861331  MEMB      44              0.0000000000
      5792        44  POPC      O21            14.6139156783       -1.7352886253      -15.1198106082  MEMB      44              0.0000000000
      5793        44  POPC      C21            13.3684668330       -1.2988258446      -14.9985676260  MEMB      44              0.0000000000
      5794        44  POPC      O22            12.4459657848       -1.7056093014      -15.6555503231  MEMB      44              0.0000000000
      5795        44  POPC      C22            13.4006576541        0.0573384822      -14.1545759838  MEMB      44              0.0000000000
      5796        44  POPC      H2R            13.2686420181       -0.0826005659      -13.0603593423  MEMB      44              0.0000000000
      5797        44  POPC      H2S            12.6122794686        0.7373950671      -14.5422663772  MEMB      44              0.0000000000
      5798        44  POPC      C3             16.1770877000       -3.6679221881      -15.6764030115  MEMB      44              0.0000000000
      5799        44  POPC      HX             17.0906704564       -3.1452486892      -16.0320712175  MEMB      44              0.0000000000
      5800        44  POPC      HY             16.1414867981       -4.5803927179      -16.3092150271  MEMB      44              0.0000000000
      5801        44  POPC      O31            16.3205140582       -4.1053616032      -14.3055046113  MEMB      44              0.0000000000
      5802        44  POPC      C31            16.7823796638       -3.1644499046      -13.5334688029  MEMB      44              0.0000000000
      5803        44  POPC      O32            17.2628740449       -2.1268661195      -13.7979160826  MEMB      44              0.0000000000
      5804        44  POPC      C32            16.4691197601       -3.5121081762      -12.0051255116  MEMB      44              0.0000000000
      5805        44  POPC      H2X            16.9289425695       -2.7877171880      -11.2993336490  MEMB      44              0.0000000000
      5806        44  POPC      H2Y            16.9115805531       -4.5249291964      -11.8922416019  MEMB      44              0.0000000000
      5807        44  POPC      C23            14.7044924678        0.8852294627      -14.3181523644  MEMB      44              0.0000000000
      5808        44  POPC      H3R            14.6851025076        1.5001077481      -15.2432846664  MEMB      44              0.0000000000
      5809        44  POPC      H3S            15.5622218516        0.1793926109      -14.3385401479  MEMB      44              0.0000000000
      5810        44  POPC      C24            14.9294774413        1.8751578108      -13.1534484238  MEMB      44              0.0000000000
      5811        44  POPC      H4R            13.8903188567        2.1708736084      -12.8945613349  MEMB      44              0.0000000000
      5812        44  POPC      H4S            15.4891809547        2.7285349802      -13.5925384252  MEMB      44              0.0000000000
      5813        44  POPC      C25            15.6753341829        1.5088939027      -11.9182857123  MEMB      44              0.0000000000
      5814        44  POPC      H5R            15.2233263161        0.6146087484      -11.4384273538  MEMB      44              0.0000000000
      5815        44  POPC      H5S            15.5909414703        2.1952392842      -11.0487288168  MEMB      44              0.0000000000
      5816        44  POPC      C26            17.1489456948        1.3370274828      -12.1686151614  MEMB      44              0.0000000000
      5817        44  POPC      H6R            17.4530720318        2.1127455044      -12.9035234030  MEMB      44              0.0000000000
      5818        44  POPC      H6S            17.4326832736        0.3723151037      -12.6409966631  MEMB      44              0.0000000000
      5819        44  POPC      C27            17.9566767020        1.5880066268      -10.9180049805  MEMB      44              0.0000000000
      5820        44  POPC      H7R            17.9886833274        2.6589407411      -10.6240710389  MEMB      44              0.0000000000
      5821        44  POPC      H7S            18.9705524361        1.3169354996      -11.2825562325  MEMB      44              0.0000000000
      5822        44  POPC      C28            17.7333484429        0.6277914140       -9.7080206326  MEMB      44              0.0000000000
      5823        44  POPC      H8R            16.6346224788        0.5608235368       -9.5575628321  MEMB      44              0.0000000000
      5824        44  POPC      H8S            18.3834243755        1.0449592089       -8.9094634178  MEMB      44              0.0000000000
      5825        44  POPC      C29            18.2649063622       -0.7740462699       -9.8663378095  MEMB      44              0.0000000000
      5826        44  POPC      H91            18.7472174318       -0.9447350535      -10.8401146889  MEMB      44              0.0000000000
      5827        44  POPC      C210           18.0625214351       -1.7092371339       -8.8931847270  MEMB      44              0.0000000000
      5828        44  POPC      H101           18.3922811247       -2.7249220758       -9.1570830361  MEMB      44              0.0000000000
      5829        44  POPC      C211           17.2413212329       -1.4685552988       -7.5678202721  MEMB      44              0.0000000000
      5830        44  POPC      H11R           16.2461838417       -1.9619548521       -7.5918919393  MEMB      44              0.0000000000
      5831        44  POPC      H11S           16.9304356393       -0.4137188508       -7.4097338153  MEMB      44              0.0000000000
      5832        44  POPC      C212           18.0038821070       -1.9536462973       -6.3583172896  MEMB      44              0.0000000000
      5833        44  POPC      H12R           18.9861969965       -1.4719032913       -6.1651795891  MEMB      44              0.0000000000
      5834        44  POPC      H12S           18.3005400017       -3.0146086328       -6.5021009079  MEMB      44              0.0000000000
      5835        44  POPC      C213           17.1869459346       -1.7811514277       -5.1016979119  MEMB      44              0.0000000000
      5836        44  POPC      H13R           16.2906227521       -2.4204661542       -5.2507021364  MEMB      44              0.0000000000
      5837        44  POPC      H13S           16.8491045206       -0.7242190171       -5.0462169670  MEMB      44              0.0000000000
      5838        44  POPC      C214           17.9570694628       -2.1481641477       -3.7139998741  MEMB      44              0.0000000000
      5839        44  POPC      H14R           18.8759470434       -1.5340544886       -3.6006227020  MEMB      44              0.0000000000
      5840        44  POPC      H14S           18.3409304863       -3.1907163609       -3.7214948133  MEMB      44              0.0000000000
      5841        44  POPC      C215           17.1533853196       -1.9033845330       -2.3967019951  MEMB      44              0.0000000000
      5842        44  POPC      H15R           16.1886433471       -2.4491619420       -2.3210660236  MEMB      44              0.0000000000
      5843        44  POPC      H15S           16.9220170673       -0.8342104073       -2.5907544904  MEMB      44              0.0000000000
      5844        44  POPC      C216           17.8399616267       -2.2339880997       -1.0642196655  MEMB      44              0.0000000000
      5845        44  POPC      H16R           17.1522640682       -1.8379963887       -0.2866705092  MEMB      44              0.0000000000
      5846        44  POPC      H16S           18.7550368596       -1.6709310108       -0.7815099671  MEMB      44              0.0000000000
      5847        44  POPC      C217           17.9625185649       -3.7564031777       -0.6984145178  MEMB      44              0.0000000000
      5848        44  POPC      H17R           18.5105784082       -3.8185716261        0.2659958129  MEMB      44              0.0000000000
      5849        44  POPC      H17S           18.5616297560       -4.3370306953       -1.4320755952  MEMB      44              0.0000000000
      5850        44  POPC      C218           16.5469718488       -4.3643009666       -0.4220182462  MEMB      44              0.0000000000
      5851        44  POPC      H18R           15.9523676872       -3.7254673673        0.2654830161  MEMB      44              0.0000000000
      5852        44  POPC      H18S           16.7338914145       -5.4204102293       -0.1321673076  MEMB      44              0.0000000000
      5853        44  POPC      H18T           16.0139931157       -4.2340303862       -1.3880850358  MEMB      44              0.0000000000
      5854        44  POPC      C33            14.9598833944       -3.6731612949      -11.6209345052  MEMB      44              0.0000000000
      5855        44  POPC      H3X            14.7914916605       -4.4225045958      -10.8181583286  MEMB      44              0.0000000000
      5856        44  POPC      H3Y            14.1764323734       -3.9561189486      -12.3560948942  MEMB      44              0.0000000000
      5857        44  POPC      C34            14.4557416597       -2.3182461300      -10.9877083995  MEMB      44              0.0000000000
      5858        44  POPC      H4X            14.1610133819       -1.5726142964      -11.7567919987  MEMB      44              0.0000000000
      5859        44  POPC      H4Y            15.2339130174       -1.8705134416      -10.3332576870  MEMB      44              0.0000000000
      5860        44  POPC      C35            13.2010301307       -2.5260470555      -10.0657842378  MEMB      44              0.0000000000
      5861        44  POPC      H5X            13.5546109693       -2.9713167020       -9.1113021127  MEMB      44              0.0000000000
      5862        44  POPC      H5Y            12.5030559467       -3.2021641627      -10.6043184291  MEMB      44              0.0000000000
      5863        44  POPC      C36            12.5425294292       -1.1814456004       -9.5783402708  MEMB      44              0.0000000000
      5864        44  POPC      H6X            11.5925122186       -1.2028622631       -9.0027279248  MEMB      44              0.0000000000
      5865        44  POPC      H6Y            12.2388536734       -0.6530319912      -10.5072540486  MEMB      44              0.0000000000
      5866        44  POPC      C37            13.4663470684       -0.2077077174       -8.8412259472  MEMB      44              0.0000000000
      5867        44  POPC      H7X            14.4227721783       -0.2649225432       -9.4036298142  MEMB      44              0.0000000000
      5868        44  POPC      H7Y            13.5432048645       -0.5094507465       -7.7747529229  MEMB      44              0.0000000000
      5869        44  POPC      C38            12.9609808001        1.1745397704       -8.8848939032  MEMB      44              0.0000000000
      5870        44  POPC      H8X            11.8854013517        1.1582295393       -8.6070727179  MEMB      44              0.0000000000
      5871        44  POPC      H8Y            13.0261587038        1.5610776374       -9.9244424181  MEMB      44              0.0000000000
      5872        44  POPC      C39            13.8367437266        2.2213092995       -8.0780396821  MEMB      44              0.0000000000
      5873        44  POPC      H9X            13.3038837602        3.1917675966       -8.1707351138  MEMB      44              0.0000000000
      5874        44  POPC      H9Y            14.7854442603        2.4086870874       -8.6250111266  MEMB      44              0.0000000000
      5875        44  POPC      C310           14.1677487209        1.9650728921       -6.6600394156  MEMB      44              0.0000000000
      5876        44  POPC      H10X           14.6566407093        0.9710891395       -6.7454895089  MEMB      44              0.0000000000
      5877        44  POPC      H10Y           13.3074660284        1.8956053926       -5.9604611100  MEMB      44              0.0000000000
      5878        44  POPC      C311           15.1138818724        2.9012195521       -6.0039565533  MEMB      44              0.0000000000
      5879        44  POPC      H11X           14.5906816707        3.8374097410       -5.7139043972  MEMB      44              0.0000000000
      5880        44  POPC      H11Y           15.9436656213        3.2272736929       -6.6668804708  MEMB      44              0.0000000000
      5881        44  POPC      C312           15.8273883726        2.2526136113       -4.8631219195  MEMB      44              0.0000000000
      5882        44  POPC      H12X           16.4293507553        1.4281112015       -5.3014800627  MEMB      44              0.0000000000
      5883        44  POPC      H12Y           15.0903862792        1.7272269980       -4.2188249379  MEMB      44              0.0000000000
      5884        44  POPC      C313           16.5198238877        3.2402435431       -3.9686699588  MEMB      44              0.0000000000
      5885        44  POPC      H13X           15.7702906266        3.9581433258       -3.5722593085  MEMB      44              0.0000000000
      5886        44  POPC      H13Y           17.3583331867        3.7451935495       -4.4942640631  MEMB      44              0.0000000000
      5887        44  POPC      C314           17.1244839868        2.5637863101       -2.6931140895  MEMB      44              0.0000000000
      5888        44  POPC      H14X           18.0530816760        3.0471114730       -2.3210623256  MEMB      44              0.0000000000
      5889        44  POPC      H14Y           17.2027753168        1.4994840654       -3.0020688315  MEMB      44              0.0000000000
      5890        44  POPC      C315           16.0903909480        2.5251403182       -1.5239997092  MEMB      44              0.0000000000
      5891        44  POPC      H15X           15.1948219961        1.9386880407       -1.8212392338  MEMB      44              0.0000000000
      5892        44  POPC      H15Y           15.7929989572        3.5634356023       -1.2635737840  MEMB      44              0.0000000000
      5893        44  POPC      C316           16.7021970960        1.8265021564       -0.3054198322  MEMB      44              0.0000000000
      5894        44  POPC      H16X           17.5820376071        2.4070779597        0.0454835857  MEMB      44              0.0000000000
      5895        44  POPC      H16Y           17.0766977969        0.8050379214       -0.5305445720  MEMB      44              0.0000000000
      5896        44  POPC      H16Z           16.0370875213        1.9267386392        0.5788328801  MEMB      44              0.0000000000
      5897        45  POPC      N              12.8843225457       -6.2263889263      -20.2488105792  MEMB      45              0.0000000000
      5898        45  POPC      C12            13.6691726978       -5.9092692614      -18.9487303873  MEMB      45              0.0000000000
      5899        45  POPC      H12A           13.0631035328       -5.3261198845      -18.2712226159  MEMB      45              0.0000000000
      5900        45  POPC      H12B           14.4866921772       -5.2376841116      -19.1656065828  MEMB      45              0.0000000000
      5901        45  POPC      C13            13.8324551257       -6.7358656730      -21.2870236146  MEMB      45              0.0000000000
      5902        45  POPC      H13A           14.1213000804       -7.6982168440      -20.8909823500  MEMB      45              0.0000000000
      5903        45  POPC      H13B           13.3285525639       -6.8712737594      -22.2326169897  MEMB      45              0.0000000000
      5904        45  POPC      H13C           14.6905589170       -6.1043978515      -21.4639595874  MEMB      45              0.0000000000
      5905        45  POPC      C14            11.8220234584       -7.2585948940      -20.0430194140  MEMB      45              0.0000000000
      5906        45  POPC      H14A           12.2644187714       -8.1814264058      -19.6979561810  MEMB      45              0.0000000000
      5907        45  POPC      H14B           11.0248054077       -7.0074252307      -19.3590917373  MEMB      45              0.0000000000
      5908        45  POPC      H14C           11.3120855744       -7.4738900816      -20.9703872354  MEMB      45              0.0000000000
      5909        45  POPC      C15            12.2687949641       -4.9073187800      -20.7699231419  MEMB      45              0.0000000000
      5910        45  POPC      H15A           13.0419718037       -4.1615208973      -20.8812016124  MEMB      45              0.0000000000
      5911        45  POPC      H15B           11.6188366338       -4.5381679381      -19.9903834113  MEMB      45              0.0000000000
      5912        45  POPC      H15C           11.5695781895       -5.1649881775      -21.5516535813  MEMB      45              0.0000000000
      5913        45  POPC      C11            14.1099958973       -7.0543584219      -17.9919169833  MEMB      45              0.0000000000
      5914        45  POPC      H11A           13.2404240493       -7.4803469588      -17.4472156222  MEMB      45              0.0000000000
      5915        45  POPC      H11B           14.7694502833       -6.5234142108      -17.2725150590  MEMB      45              0.0000000000
      5916        45  POPC      P              15.9460386792       -8.9931708812      -17.9380865031  MEMB      45              0.0000000000
      5917        45  POPC      O13            16.7239405633       -8.2025288049      -16.9623863999  MEMB      45              0.0000000000
      5918        45  POPC      O14            16.6565121024       -9.7872868836      -18.9481443476  MEMB      45              0.0000000000
      5919        45  POPC      O12            14.8902322531       -8.0571688731      -18.6927866492  MEMB      45              0.0000000000
      5920        45  POPC      O11            15.0519621976      -10.0014684263      -17.1691719469  MEMB      45              0.0000000000
      5921        45  POPC      C1             13.9510668447      -10.6383011400      -17.8894219251  MEMB      45              0.0000000000
      5922        45  POPC      HA             14.3508153727      -11.6031260894      -18.2684139057  MEMB      45              0.0000000000
      5923        45  POPC      HB             13.5182670065      -10.1513243237      -18.7893435728  MEMB      45              0.0000000000
      5924        45  POPC      C2             12.7358067272      -11.1033881971      -17.0090912683  MEMB      45              0.0000000000
      5925        45  POPC      HS             11.8272819766      -11.1254851043      -17.6481651132  MEMB      45              0.0000000000
      5926        45  POPC      O21            12.6457318719      -10.2825562237      -15.8139914401  MEMB      45              0.0000000000
      5927        45  POPC      C21            11.4892059168       -9.7662899837      -15.5093130247  MEMB      45              0.0000000000
      5928        45  POPC      O22            10.4327143345       -9.9944743162      -15.9856392751  MEMB      45              0.0000000000
      5929        45  POPC      C22            11.7924471393       -8.6647514208      -14.5028051127  MEMB      45              0.0000000000
      5930        45  POPC      H2R            11.5773048836       -7.6438012808      -14.8845062169  MEMB      45              0.0000000000
      5931        45  POPC      H2S            12.8350134819       -8.6243406944      -14.1210419210  MEMB      45              0.0000000000
      5932        45  POPC      C3             13.0159560880      -12.6309341428      -16.5053627676  MEMB      45              0.0000000000
      5933        45  POPC      HX             12.8838491258      -13.3194280382      -17.3672472340  MEMB      45              0.0000000000
      5934        45  POPC      HY             12.2276561474      -12.8986811401      -15.7696891037  MEMB      45              0.0000000000
      5935        45  POPC      O31            14.4029393318      -12.6163995846      -15.9618430149  MEMB      45              0.0000000000
      5936        45  POPC      C31            14.4834733848      -12.7110138769      -14.6691689711  MEMB      45              0.0000000000
      5937        45  POPC      O32            13.5420202943      -12.8558699302      -13.8536465234  MEMB      45              0.0000000000
      5938        45  POPC      C32            15.9775035616      -12.5203263120      -14.3447966153  MEMB      45              0.0000000000
      5939        45  POPC      H2X            16.5376808764      -12.4217619285      -15.2991588537  MEMB      45              0.0000000000
      5940        45  POPC      H2Y            16.4461932561      -13.3731142136      -13.8086959908  MEMB      45              0.0000000000
      5941        45  POPC      C23            10.9297147546       -8.7775399934      -13.2359324281  MEMB      45              0.0000000000
      5942        45  POPC      H3R             9.8979327772       -8.7639474901      -13.6477114985  MEMB      45              0.0000000000
      5943        45  POPC      H3S            11.1325620812       -7.8293494634      -12.6936145451  MEMB      45              0.0000000000
      5944        45  POPC      C24            11.0850929249      -10.0265605985      -12.4954982233  MEMB      45              0.0000000000
      5945        45  POPC      H4R            11.1177322026      -10.9161263895      -13.1602751096  MEMB      45              0.0000000000
      5946        45  POPC      H4S            10.3736687544      -10.2618957070      -11.6752458210  MEMB      45              0.0000000000
      5947        45  POPC      C25            12.4891935761      -10.0632897025      -11.9252064217  MEMB      45              0.0000000000
      5948        45  POPC      H5R            12.5979671797       -9.0797192279      -11.4201532873  MEMB      45              0.0000000000
      5949        45  POPC      H5S            13.2915556493      -10.1945551858      -12.6823756935  MEMB      45              0.0000000000
      5950        45  POPC      C26            12.3748289905      -11.1132287832      -10.8058415888  MEMB      45              0.0000000000
      5951        45  POPC      H6R            12.1265626455      -12.0934954741      -11.2660176669  MEMB      45              0.0000000000
      5952        45  POPC      H6S            11.5551806677      -10.7493462305      -10.1500315669  MEMB      45              0.0000000000
      5953        45  POPC      C27            13.5740038774      -11.2061961163       -9.9193058861  MEMB      45              0.0000000000
      5954        45  POPC      H7R            13.7833131244      -10.2836510216       -9.3367073243  MEMB      45              0.0000000000
      5955        45  POPC      H7S            14.4593277256      -11.4005416844      -10.5617638975  MEMB      45              0.0000000000
      5956        45  POPC      C28            13.4321742385      -12.3772784517       -8.9361768625  MEMB      45              0.0000000000
      5957        45  POPC      H8R            13.2282801079      -13.1988990521       -9.6556826859  MEMB      45              0.0000000000
      5958        45  POPC      H8S            12.5070238383      -12.3218714187       -8.3235205283  MEMB      45              0.0000000000
      5959        45  POPC      C29            14.7242405281      -12.7079657428       -8.1782543803  MEMB      45              0.0000000000
      5960        45  POPC      H91            15.3090136594      -13.5472248167       -8.5828335889  MEMB      45              0.0000000000
      5961        45  POPC      C210           15.2388376718      -12.1643698531       -7.0446944187  MEMB      45              0.0000000000
      5962        45  POPC      H101           16.2866204042      -12.2904228111       -6.7344331076  MEMB      45              0.0000000000
      5963        45  POPC      C211           14.4470458300      -11.0660964492       -6.2967044855  MEMB      45              0.0000000000
      5964        45  POPC      H11R           13.6455901677      -10.6620625513       -6.9514924025  MEMB      45              0.0000000000
      5965        45  POPC      H11S           15.1359596775      -10.1948239135       -6.2721486797  MEMB      45              0.0000000000
      5966        45  POPC      C212           13.8749758820      -11.3780631974       -4.8880854064  MEMB      45              0.0000000000
      5967        45  POPC      H12R           13.2091601009      -12.2642754458       -4.9631703092  MEMB      45              0.0000000000
      5968        45  POPC      H12S           13.4079150444      -10.4189373998       -4.5778391089  MEMB      45              0.0000000000
      5969        45  POPC      C213           14.9469264835      -11.5750460400       -3.7452828988  MEMB      45              0.0000000000
      5970        45  POPC      H13R           15.6915540296      -10.7506521667       -3.7602940939  MEMB      45              0.0000000000
      5971        45  POPC      H13S           15.5398464683      -12.5084211464       -3.8528828180  MEMB      45              0.0000000000
      5972        45  POPC      C214           14.0816304685      -11.5391892596       -2.4847375859  MEMB      45              0.0000000000
      5973        45  POPC      H14R           13.3077905755      -12.3219492625       -2.6356671499  MEMB      45              0.0000000000
      5974        45  POPC      H14S           13.5733822942      -10.5613941686       -2.3435940333  MEMB      45              0.0000000000
      5975        45  POPC      C215           14.7377639903      -11.9928598112       -1.1183338008  MEMB      45              0.0000000000
      5976        45  POPC      H15R           14.0009905855      -11.8238464953       -0.3041341067  MEMB      45              0.0000000000
      5977        45  POPC      H15S           15.6392302613      -11.3964634321       -0.8614478411  MEMB      45              0.0000000000
      5978        45  POPC      C216           15.1746736357      -13.4765241731       -1.1059506129  MEMB      45              0.0000000000
      5979        45  POPC      H16R           16.1392489127      -13.7362719782       -1.5922087256  MEMB      45              0.0000000000
      5980        45  POPC      H16S           14.3565141318      -14.0384299031       -1.6051482007  MEMB      45              0.0000000000
      5981        45  POPC      C217           15.1810684364      -13.9325440473        0.3628679034  MEMB      45              0.0000000000
      5982        45  POPC      H17R           15.4955835533      -14.9958707088        0.2940378703  MEMB      45              0.0000000000
      5983        45  POPC      H17S           14.1892027658      -13.8965848604        0.8620966454  MEMB      45              0.0000000000
      5984        45  POPC      C218           16.1747280930      -13.2672630090        1.3298469298  MEMB      45              0.0000000000
      5985        45  POPC      H18R           17.2487967302      -13.2840289176        1.0462695301  MEMB      45              0.0000000000
      5986        45  POPC      H18S           16.1435615421      -13.8018013340        2.3033038118  MEMB      45              0.0000000000
      5987        45  POPC      H18T           15.7252185423      -12.2646663408        1.4943526366  MEMB      45              0.0000000000
      5988        45  POPC      C33            16.1531835958      -11.2399265457      -13.5094911225  MEMB      45              0.0000000000
      5989        45  POPC      H3X            17.1867664129      -11.1845541406      -13.1058059929  MEMB      45              0.0000000000
      5990        45  POPC      H3Y            15.3477061070      -11.2470256849      -12.7443269139  MEMB      45              0.0000000000
      5991        45  POPC      C34            16.0075232423       -9.9263280903      -14.3401169793  MEMB      45              0.0000000000
      5992        45  POPC      H4X            14.9915875325       -9.8291990360      -14.7791634125  MEMB      45              0.0000000000
      5993        45  POPC      H4Y            16.7129368736      -10.1327543405      -15.1732440753  MEMB      45              0.0000000000
      5994        45  POPC      C35            16.4698085435       -8.6817145142      -13.6879443230  MEMB      45              0.0000000000
      5995        45  POPC      H5X            16.6883281294       -7.9154726868      -14.4621817046  MEMB      45              0.0000000000
      5996        45  POPC      H5Y            17.3247997308       -8.8684406732      -13.0035140780  MEMB      45              0.0000000000
      5997        45  POPC      C36            15.4398056241       -8.0698743202      -12.6946826633  MEMB      45              0.0000000000
      5998        45  POPC      H6X            15.2454518991       -8.9498955123      -12.0449822965  MEMB      45              0.0000000000
      5999        45  POPC      H6Y            14.4018971568       -7.8413355391      -13.0184686914  MEMB      45              0.0000000000
      6000        45  POPC      C37            15.9818160777       -6.9599460973      -11.8905209479  MEMB      45              0.0000000000
      6001        45  POPC      H7X            15.9672299491       -5.9811968077      -12.4160284306  MEMB      45              0.0000000000
      6002        45  POPC      H7Y            17.0577568866       -7.2071120488      -11.7656960330  MEMB      45              0.0000000000
      6003        45  POPC      C38            15.5144110472       -6.7493248103      -10.4537592858  MEMB      45              0.0000000000
      6004        45  POPC      H8X            14.4565294882       -6.4177319312      -10.3812762684  MEMB      45              0.0000000000
      6005        45  POPC      H8Y            16.1241988850       -5.8604490254      -10.1847242867  MEMB      45              0.0000000000
      6006        45  POPC      C39            15.9538372971       -7.7930389541       -9.3302457716  MEMB      45              0.0000000000
      6007        45  POPC      H9X            16.9594702329       -8.2134159076       -9.5454354918  MEMB      45              0.0000000000
      6008        45  POPC      H9Y            15.1595318741       -8.5398565807       -9.5439355783  MEMB      45              0.0000000000
      6009        45  POPC      C310           15.9185057925       -7.1269407147       -8.0041213528  MEMB      45              0.0000000000
      6010        45  POPC      H10X           16.5550445389       -6.2169125232       -7.9726894855  MEMB      45              0.0000000000
      6011        45  POPC      H10Y           16.3781765971       -7.9162603902       -7.3716671824  MEMB      45              0.0000000000
      6012        45  POPC      C311           14.5394124250       -6.7271917786       -7.5076477104  MEMB      45              0.0000000000
      6013        45  POPC      H11X           13.7896086176       -7.4290519384       -7.9313309821  MEMB      45              0.0000000000
      6014        45  POPC      H11Y           14.2561977197       -5.7855407172       -8.0247580278  MEMB      45              0.0000000000
      6015        45  POPC      C312           14.3651528011       -6.4989300932       -6.0423245155  MEMB      45              0.0000000000
      6016        45  POPC      H12X           13.4199492863       -5.9885262374       -5.7587776407  MEMB      45              0.0000000000
      6017        45  POPC      H12Y           15.1507176541       -5.7897741995       -5.7042313439  MEMB      45              0.0000000000
      6018        45  POPC      C313           14.3582971498       -7.7619370315       -5.2565823345  MEMB      45              0.0000000000
      6019        45  POPC      H13X           15.3270549748       -8.2711334967       -5.4477584689  MEMB      45              0.0000000000
      6020        45  POPC      H13Y           13.7799241745       -8.6156454135       -5.6700895402  MEMB      45              0.0000000000
      6021        45  POPC      C314           14.2459409412       -7.4715713982       -3.7555406970  MEMB      45              0.0000000000
      6022        45  POPC      H14X           13.8585098255       -8.3339131393       -3.1719439963  MEMB      45              0.0000000000
      6023        45  POPC      H14Y           13.4962048626       -6.6539714797       -3.6943248239  MEMB      45              0.0000000000
      6024        45  POPC      C315           15.6187313793       -6.9900032815       -3.1709601094  MEMB      45              0.0000000000
      6025        45  POPC      H15X           16.0342332413       -6.1714110342       -3.7967286832  MEMB      45              0.0000000000
      6026        45  POPC      H15Y           16.3978242435       -7.7601275015       -3.3560110985  MEMB      45              0.0000000000
      6027        45  POPC      C316           15.5507807305       -6.6245710445       -1.7028897809  MEMB      45              0.0000000000
      6028        45  POPC      H16X           16.5836589638       -6.4677687773       -1.3248723099  MEMB      45              0.0000000000
      6029        45  POPC      H16Y           15.1260098010       -7.4774558936       -1.1315068962  MEMB      45              0.0000000000
      6030        45  POPC      H16Z           14.9725125692       -5.7054818512       -1.4679388382  MEMB      45              0.0000000000
      6031        46  POPC      N             -15.5279118758       -1.3596283811      -20.7267412682  MEMB      46              0.0000000000
      6032        46  POPC      C12           -15.0996197483       -1.3814703392      -19.2705793692  MEMB      46              0.0000000000
      6033        46  POPC      H12A          -15.8333639034       -0.9024658193      -18.6392519855  MEMB      46              0.0000000000
      6034        46  POPC      H12B          -14.1194956901       -0.9437218411      -19.1516966398  MEMB      46              0.0000000000
      6035        46  POPC      C13           -14.7102801407       -2.3322260058      -21.5900007001  MEMB      46              0.0000000000
      6036        46  POPC      H13A          -15.0112872556       -2.2732162462      -22.6255259691  MEMB      46              0.0000000000
      6037        46  POPC      H13B          -13.6514890013       -2.1192570024      -21.5923590117  MEMB      46              0.0000000000
      6038        46  POPC      H13C          -14.8084605193       -3.3060157545      -21.1333888443  MEMB      46              0.0000000000
      6039        46  POPC      C14           -16.9484038442       -1.6963830487      -20.8618772112  MEMB      46              0.0000000000
      6040        46  POPC      H14A          -17.5825531286       -1.0141255820      -20.3152701838  MEMB      46              0.0000000000
      6041        46  POPC      H14B          -17.0586180913       -1.6238610824      -21.9337883796  MEMB      46              0.0000000000
      6042        46  POPC      H14C          -17.1657584128       -2.7069419372      -20.5489431148  MEMB      46              0.0000000000
      6043        46  POPC      C15           -15.3344238593        0.0638720370      -21.1844902923  MEMB      46              0.0000000000
      6044        46  POPC      H15A          -15.5591725567        0.5955723026      -20.2717018670  MEMB      46              0.0000000000
      6045        46  POPC      H15B          -16.0745795417        0.3613295012      -21.9125621689  MEMB      46              0.0000000000
      6046        46  POPC      H15C          -14.2670232435        0.1949130736      -21.2839085824  MEMB      46              0.0000000000
      6047        46  POPC      C11           -14.8968926492       -2.8298433127      -18.7052792581  MEMB      46              0.0000000000
      6048        46  POPC      H11A          -14.2714435958       -2.7204414271      -17.7935963344  MEMB      46              0.0000000000
      6049        46  POPC      H11B          -14.2246810471       -3.4203508015      -19.3638788475  MEMB      46              0.0000000000
      6050        46  POPC      P             -16.8644583758       -3.4868664764      -17.2634467391  MEMB      46              0.0000000000
      6051        46  POPC      O13           -16.1778165518       -4.3002594008      -16.2920151444  MEMB      46              0.0000000000
      6052        46  POPC      O14           -18.2381428107       -3.8478164465      -17.6823730588  MEMB      46              0.0000000000
      6053        46  POPC      O12           -16.0777866642       -3.5075991579      -18.6282358148  MEMB      46              0.0000000000
      6054        46  POPC      O11           -16.6704486806       -1.9796112150      -16.7949611437  MEMB      46              0.0000000000
      6055        46  POPC      C1            -17.6373006554       -1.4502223022      -15.8882552129  MEMB      46              0.0000000000
      6056        46  POPC      HA            -17.5741123977       -2.0175183095      -14.9351006112  MEMB      46              0.0000000000
      6057        46  POPC      HB            -18.6588586387       -1.4931794572      -16.3228755762  MEMB      46              0.0000000000
      6058        46  POPC      C2            -17.3688525641        0.0337685146      -15.4067017376  MEMB      46              0.0000000000
      6059        46  POPC      HS            -16.9677762681        0.7722734112      -16.1333855046  MEMB      46              0.0000000000
      6060        46  POPC      O21           -16.3794923632       -0.1005807056      -14.3179455222  MEMB      46              0.0000000000
      6061        46  POPC      C21           -16.0934891983        1.0437003079      -13.6283474380  MEMB      46              0.0000000000
      6062        46  POPC      O22           -16.4681835489        2.1696029810      -14.0104085100  MEMB      46              0.0000000000
      6063        46  POPC      C22           -15.2238311221        0.6116109765      -12.4148646509  MEMB      46              0.0000000000
      6064        46  POPC      H2R           -15.0298011987        1.5172783464      -11.8013175525  MEMB      46              0.0000000000
      6065        46  POPC      H2S           -14.2560226274        0.1814291803      -12.7504408958  MEMB      46              0.0000000000
      6066        46  POPC      C3            -18.7155282572        0.6403520072      -14.9385569699  MEMB      46              0.0000000000
      6067        46  POPC      HX            -19.3400957398        0.7479108392      -15.8510631549  MEMB      46              0.0000000000
      6068        46  POPC      HY            -18.7256602774        1.7071784704      -14.6285566992  MEMB      46              0.0000000000
      6069        46  POPC      O31           -19.4872779793       -0.2152444278      -14.1536838989  MEMB      46              0.0000000000
      6070        46  POPC      C31           -19.7574265317        0.1710487607      -12.8728288813  MEMB      46              0.0000000000
      6071        46  POPC      O32           -19.2252287782        1.0535754326      -12.2590437577  MEMB      46              0.0000000000
      6072        46  POPC      C32           -20.8995811518       -0.7347681546      -12.3370325815  MEMB      46              0.0000000000
      6073        46  POPC      H2X           -21.1774973539       -1.5413211642      -13.0487602493  MEMB      46              0.0000000000
      6074        46  POPC      H2Y           -21.8192746418       -0.1346138681      -12.1688082128  MEMB      46              0.0000000000
      6075        46  POPC      C23           -15.9468549485       -0.4298944372      -11.5356464638  MEMB      46              0.0000000000
      6076        46  POPC      H3R           -16.1210784190       -1.2070023616      -12.3102883746  MEMB      46              0.0000000000
      6077        46  POPC      H3S           -16.9291052641       -0.0317399677      -11.2025118154  MEMB      46              0.0000000000
      6078        46  POPC      C24           -15.1807371623       -1.0721744132      -10.3756779740  MEMB      46              0.0000000000
      6079        46  POPC      H4R           -14.1715739176       -1.4133599606      -10.6911185434  MEMB      46              0.0000000000
      6080        46  POPC      H4S           -15.8166701002       -1.8980794199       -9.9912413846  MEMB      46              0.0000000000
      6081        46  POPC      C25           -15.0811630338       -0.0464399042       -9.1953398785  MEMB      46              0.0000000000
      6082        46  POPC      H5R           -14.6546312134        0.9014816094       -9.5875597481  MEMB      46              0.0000000000
      6083        46  POPC      H5S           -14.4508763995       -0.5554438661       -8.4350935521  MEMB      46              0.0000000000
      6084        46  POPC      C26           -16.4311324105        0.2377129388       -8.4776491535  MEMB      46              0.0000000000
      6085        46  POPC      H6R           -16.9326734922       -0.6600298532       -8.0571311603  MEMB      46              0.0000000000
      6086        46  POPC      H6S           -17.0787894273        0.5953992195       -9.3064562315  MEMB      46              0.0000000000
      6087        46  POPC      C27           -16.3292705007        1.4174269240       -7.5971892636  MEMB      46              0.0000000000
      6088        46  POPC      H7R           -15.5090146367        2.1177152961       -7.8638317792  MEMB      46              0.0000000000
      6089        46  POPC      H7S           -16.0207770249        1.0768461371       -6.5856767434  MEMB      46              0.0000000000
      6090        46  POPC      C28           -17.6824211541        2.1651516392       -7.3318042788  MEMB      46              0.0000000000
      6091        46  POPC      H8R           -17.6091133913        2.7143201275       -8.2948005522  MEMB      46              0.0000000000
      6092        46  POPC      H8S           -17.7107973238        2.8120678984       -6.4290225945  MEMB      46              0.0000000000
      6093        46  POPC      C29           -18.9560263797        1.3453959337       -7.2803364681  MEMB      46              0.0000000000
      6094        46  POPC      H91           -19.5522355795        1.5296011844       -8.1862081606  MEMB      46              0.0000000000
      6095        46  POPC      C210          -19.4563624423        0.5725542891       -6.3012123573  MEMB      46              0.0000000000
      6096        46  POPC      H101          -20.4412727514        0.1038458806       -6.4435648997  MEMB      46              0.0000000000
      6097        46  POPC      C211          -18.7804141931        0.4263350273       -4.9298704785  MEMB      46              0.0000000000
      6098        46  POPC      H11R          -19.3423249808        0.8901099910       -4.0911273498  MEMB      46              0.0000000000
      6099        46  POPC      H11S          -17.8432296225        1.0200354966       -4.8704911074  MEMB      46              0.0000000000
      6100        46  POPC      C212          -18.4523471352       -1.0510011173       -4.7709707764  MEMB      46              0.0000000000
      6101        46  POPC      H12R          -17.7718732003       -1.2041573143       -3.9062052440  MEMB      46              0.0000000000
      6102        46  POPC      H12S          -17.9697638532       -1.4090559254       -5.7054394887  MEMB      46              0.0000000000
      6103        46  POPC      C213          -19.6590170003       -2.0204934993       -4.5646237458  MEMB      46              0.0000000000
      6104        46  POPC      H13R          -19.2705344810       -3.0611661117       -4.5847004490  MEMB      46              0.0000000000
      6105        46  POPC      H13S          -20.3468770071       -1.9227046993       -5.4315761404  MEMB      46              0.0000000000
      6106        46  POPC      C214          -20.7069567521       -1.6192201854       -3.3852234350  MEMB      46              0.0000000000
      6107        46  POPC      H14R          -21.6569660319       -2.1694179260       -3.5557689866  MEMB      46              0.0000000000
      6108        46  POPC      H14S          -21.0330069380       -0.5596934926       -3.4588090981  MEMB      46              0.0000000000
      6109        46  POPC      C215          -20.1901541364       -2.0841025072       -1.9481342906  MEMB      46              0.0000000000
      6110        46  POPC      H15R          -19.3223929858       -1.4488532795       -1.6692621484  MEMB      46              0.0000000000
      6111        46  POPC      H15S          -19.7592450082       -3.1076848434       -1.9784262346  MEMB      46              0.0000000000
      6112        46  POPC      C216          -21.2473241007       -2.1344447901       -0.8255207332  MEMB      46              0.0000000000
      6113        46  POPC      H16R          -22.0488261933       -2.6880262809       -1.3598076926  MEMB      46              0.0000000000
      6114        46  POPC      H16S          -21.6222637440       -1.1067556391       -0.6316237768  MEMB      46              0.0000000000
      6115        46  POPC      C217          -20.8590570098       -2.9616040799        0.3969968475  MEMB      46              0.0000000000
      6116        46  POPC      H17R          -20.5540247696       -3.9479726993       -0.0133118547  MEMB      46              0.0000000000
      6117        46  POPC      H17S          -21.6916969204       -3.0306559320        1.1292965313  MEMB      46              0.0000000000
      6118        46  POPC      C218          -19.6846745065       -2.3241907313        1.2180056355  MEMB      46              0.0000000000
      6119        46  POPC      H18R          -19.7073683344       -1.2603095387        0.8986903587  MEMB      46              0.0000000000
      6120        46  POPC      H18S          -18.7284695277       -2.8385102182        0.9824876292  MEMB      46              0.0000000000
      6121        46  POPC      H18T          -19.7519907980       -2.3277010063        2.3269591511  MEMB      46              0.0000000000
      6122        46  POPC      C33           -20.7098174330       -1.3640177197      -10.8956976598  MEMB      46              0.0000000000
      6123        46  POPC      H3X           -21.7180318719       -1.7134499731      -10.5863075138  MEMB      46              0.0000000000
      6124        46  POPC      H3Y           -20.4439563859       -0.6337713845      -10.1017336299  MEMB      46              0.0000000000
      6125        46  POPC      C34           -19.6838258173       -2.4923286573      -10.9101353697  MEMB      46              0.0000000000
      6126        46  POPC      H4X           -18.8487344423       -2.1918865780      -11.5784750443  MEMB      46              0.0000000000
      6127        46  POPC      H4Y           -20.2036239079       -3.4056008423      -11.2707800196  MEMB      46              0.0000000000
      6128        46  POPC      C35           -19.2030857523       -2.7331974268       -9.4934815620  MEMB      46              0.0000000000
      6129        46  POPC      H5X           -19.9315311716       -2.9917258244       -8.6954519654  MEMB      46              0.0000000000
      6130        46  POPC      H5Y           -18.8100454972       -1.7347776141       -9.2053875572  MEMB      46              0.0000000000
      6131        46  POPC      C36           -18.0712157810       -3.7123113299       -9.4180226449  MEMB      46              0.0000000000
      6132        46  POPC      H6X           -17.3401931654       -3.4395197543      -10.2089150554  MEMB      46              0.0000000000
      6133        46  POPC      H6Y           -18.4584597547       -4.6955462574       -9.7609682653  MEMB      46              0.0000000000
      6134        46  POPC      C37           -17.4427756907       -3.7518128690       -8.0475540100  MEMB      46              0.0000000000
      6135        46  POPC      H7X           -18.2186327302       -4.1293870698       -7.3476932509  MEMB      46              0.0000000000
      6136        46  POPC      H7Y           -17.0993225924       -2.7354013428       -7.7589915604  MEMB      46              0.0000000000
      6137        46  POPC      C38           -16.1494705835       -4.5634112832       -8.0945579317  MEMB      46              0.0000000000
      6138        46  POPC      H8X           -15.7794419585       -4.3041311598       -9.1095320689  MEMB      46              0.0000000000
      6139        46  POPC      H8Y           -16.3747219000       -5.6442891644       -7.9709205883  MEMB      46              0.0000000000
      6140        46  POPC      C39           -14.9844743753       -4.0553185879       -7.2105513017  MEMB      46              0.0000000000
      6141        46  POPC      H9X           -14.6481444571       -3.0341807202       -7.4906948920  MEMB      46              0.0000000000
      6142        46  POPC      H9Y           -14.0721835817       -4.6620343094       -7.3947863200  MEMB      46              0.0000000000
      6143        46  POPC      C310          -15.3626266415       -3.9539484773       -5.7636184760  MEMB      46              0.0000000000
      6144        46  POPC      H10X          -15.8237840045       -4.9286702069       -5.4960878910  MEMB      46              0.0000000000
      6145        46  POPC      H10Y          -16.0638957817       -3.1586592047       -5.4318696028  MEMB      46              0.0000000000
      6146        46  POPC      C311          -14.1671503294       -3.8946050449       -4.8944047782  MEMB      46              0.0000000000
      6147        46  POPC      H11X          -13.7889973772       -2.8947941037       -5.1972248051  MEMB      46              0.0000000000
      6148        46  POPC      H11Y          -13.4503581443       -4.7037421918       -5.1509732663  MEMB      46              0.0000000000
      6149        46  POPC      C312          -14.5565243943       -3.9496333711       -3.4197803303  MEMB      46              0.0000000000
      6150        46  POPC      H12X          -13.6531795627       -4.1578643883       -2.8074661761  MEMB      46              0.0000000000
      6151        46  POPC      H12Y          -15.2920097523       -4.7586437265       -3.2225891882  MEMB      46              0.0000000000
      6152        46  POPC      C313          -15.0247276606       -2.6675948878       -2.7519576271  MEMB      46              0.0000000000
      6153        46  POPC      H13X          -15.9635733960       -2.2661189914       -3.1898008177  MEMB      46              0.0000000000
      6154        46  POPC      H13Y          -14.2774615306       -1.8621255108       -2.9166798189  MEMB      46              0.0000000000
      6155        46  POPC      C314          -15.3638125537       -2.9509286720       -1.2089204074  MEMB      46              0.0000000000
      6156        46  POPC      H14X          -14.8308745386       -3.8571742685       -0.8497325497  MEMB      46              0.0000000000
      6157        46  POPC      H14Y          -16.4620056243       -3.0993069968       -1.2881469609  MEMB      46              0.0000000000
      6158        46  POPC      C315          -15.0491811574       -1.7010465819       -0.3863761206  MEMB      46              0.0000000000
      6159        46  POPC      H15X          -15.4933619315       -1.8016201643        0.6269880154  MEMB      46              0.0000000000
      6160        46  POPC      H15Y          -15.4013090239       -0.7770775961       -0.8929420204  MEMB      46              0.0000000000
      6161        46  POPC      C316          -13.4981123079       -1.6151754761       -0.2142403239  MEMB      46              0.0000000000
      6162        46  POPC      H16X          -13.1957283346       -2.4043221468        0.5069616188  MEMB      46              0.0000000000
      6163        46  POPC      H16Y          -13.2284314487       -0.5497064461       -0.0518567232  MEMB      46              0.0000000000
      6164        46  POPC      H16Z          -12.9710374076       -1.9171303605       -1.1444761574  MEMB      46              0.0000000000
      6165        47  POPC      N              -3.8010451228       17.9588905446      -18.9323687876  MEMB      47              0.0000000000
      6166        47  POPC      C12            -5.2701345105       18.4317510337      -19.0545031518  MEMB      47              0.0000000000
      6167        47  POPC      H12A           -5.4778187664       18.7995670174      -20.0484743396  MEMB      47              0.0000000000
      6168        47  POPC      H12B           -5.3710085175       19.2633401014      -18.3728258262  MEMB      47              0.0000000000
      6169        47  POPC      C13            -3.6699798610       16.7004861002      -19.7570900164  MEMB      47              0.0000000000
      6170        47  POPC      H13A           -4.0009525300       16.8954003139      -20.7664788658  MEMB      47              0.0000000000
      6171        47  POPC      H13B           -2.6322941246       16.4016348995      -19.7743056192  MEMB      47              0.0000000000
      6172        47  POPC      H13C           -4.2874991876       15.8548446746      -19.4925894156  MEMB      47              0.0000000000
      6173        47  POPC      C14            -2.9702533130       19.0450285584      -19.5106717670  MEMB      47              0.0000000000
      6174        47  POPC      H14A           -3.1128125240       19.9652970640      -18.9636959046  MEMB      47              0.0000000000
      6175        47  POPC      H14B           -1.9134523430       18.8298242559      -19.5677610985  MEMB      47              0.0000000000
      6176        47  POPC      H14C           -3.2189101860       19.1479570024      -20.5566045469  MEMB      47              0.0000000000
      6177        47  POPC      C15            -3.4471866054       17.7242250907      -17.5113225756  MEMB      47              0.0000000000
      6178        47  POPC      H15A           -3.3019765003       16.6725263552      -17.3132221489  MEMB      47              0.0000000000
      6179        47  POPC      H15B           -4.0352875734       18.3397684339      -16.8467599486  MEMB      47              0.0000000000
      6180        47  POPC      H15C           -2.4784513349       18.1858390891      -17.3894009165  MEMB      47              0.0000000000
      6181        47  POPC      C11            -6.3556781878       17.4429060759      -18.6492657461  MEMB      47              0.0000000000
      6182        47  POPC      H11A           -7.2878771294       18.0294865468      -18.5034938424  MEMB      47              0.0000000000
      6183        47  POPC      H11B           -6.0590760137       17.0728627546      -17.6445686604  MEMB      47              0.0000000000
      6184        47  POPC      P              -7.6194376301       15.2624036654      -19.1423832400  MEMB      47              0.0000000000
      6185        47  POPC      O13            -7.2803207429       14.0601748118      -19.8915122661  MEMB      47              0.0000000000
      6186        47  POPC      O14            -8.9626447679       15.8526422773      -19.4823954732  MEMB      47              0.0000000000
      6187        47  POPC      O12            -6.4785480063       16.3155841926      -19.5510544720  MEMB      47              0.0000000000
      6188        47  POPC      O11            -7.3957540185       15.1638004102      -17.5174325063  MEMB      47              0.0000000000
      6189        47  POPC      C1             -6.7784700307       14.0010855375      -16.9893342164  MEMB      47              0.0000000000
      6190        47  POPC      HA             -5.8036837021       13.8475717513      -17.4997713684  MEMB      47              0.0000000000
      6191        47  POPC      HB             -7.3569137328       13.0622571766      -17.1247042405  MEMB      47              0.0000000000
      6192        47  POPC      C2             -6.5472797646       14.2462544189      -15.5262788698  MEMB      47              0.0000000000
      6193        47  POPC      HS             -7.2718605588       13.6202506534      -14.9628761084  MEMB      47              0.0000000000
      6194        47  POPC      O21            -6.5529776500       15.6067666486      -15.0985610996  MEMB      47              0.0000000000
      6195        47  POPC      C21            -7.3669911814       15.8696190375      -14.1515210917  MEMB      47              0.0000000000
      6196        47  POPC      O22            -8.2111957450       15.1840338680      -13.6179354164  MEMB      47              0.0000000000
      6197        47  POPC      C22            -7.1169778217       17.3142412822      -13.6049236268  MEMB      47              0.0000000000
      6198        47  POPC      H2R            -7.6403100538       18.0408992175      -14.2625044467  MEMB      47              0.0000000000
      6199        47  POPC      H2S            -6.0336745638       17.4980770843      -13.4406693872  MEMB      47              0.0000000000
      6200        47  POPC      C3             -5.1447128088       13.6314611671      -15.1912700460  MEMB      47              0.0000000000
      6201        47  POPC      HX             -4.4129727120       14.1500089782      -15.8470027411  MEMB      47              0.0000000000
      6202        47  POPC      HY             -5.1119895530       12.5878546298      -15.5709220518  MEMB      47              0.0000000000
      6203        47  POPC      O31            -4.7364660337       13.5713952051      -13.8169856487  MEMB      47              0.0000000000
      6204        47  POPC      C31            -4.3892193395       14.6697801865      -13.2477931591  MEMB      47              0.0000000000
      6205        47  POPC      O32            -4.2471685317       15.7564167087      -13.8403469304  MEMB      47              0.0000000000
      6206        47  POPC      C32            -4.1010359980       14.3901279477      -11.7884682834  MEMB      47              0.0000000000
      6207        47  POPC      H2X            -3.6614736134       15.3372523921      -11.4089143562  MEMB      47              0.0000000000
      6208        47  POPC      H2Y            -3.3043509818       13.6341482424      -11.6208117212  MEMB      47              0.0000000000
      6209        47  POPC      C23            -7.8229216735       17.4215475747      -12.3058769588  MEMB      47              0.0000000000
      6210        47  POPC      H3R            -7.5690483759       16.6473425537      -11.5505780915  MEMB      47              0.0000000000
      6211        47  POPC      H3S            -8.9240237268       17.3432513064      -12.4314347914  MEMB      47              0.0000000000
      6212        47  POPC      C24            -7.7091767245       18.8363813654      -11.6627555552  MEMB      47              0.0000000000
      6213        47  POPC      H4R            -8.0059064116       19.6325668548      -12.3785498759  MEMB      47              0.0000000000
      6214        47  POPC      H4S            -6.6461308731       18.9582503687      -11.3637526694  MEMB      47              0.0000000000
      6215        47  POPC      C25            -8.7311298051       19.1717882205      -10.5224595189  MEMB      47              0.0000000000
      6216        47  POPC      H5R            -9.5970517945       18.4769540451      -10.5637612681  MEMB      47              0.0000000000
      6217        47  POPC      H5S            -9.1182069636       20.1928298195      -10.7273162469  MEMB      47              0.0000000000
      6218        47  POPC      C26            -8.1392251689       19.2387482570       -9.1163027338  MEMB      47              0.0000000000
      6219        47  POPC      H6R            -7.3445266991       20.0013662681       -9.2618672222  MEMB      47              0.0000000000
      6220        47  POPC      H6S            -7.5670672266       18.3259629426       -8.8446785259  MEMB      47              0.0000000000
      6221        47  POPC      C27            -9.1517175470       19.6376988728       -8.1129399638  MEMB      47              0.0000000000
      6222        47  POPC      H7R            -9.9140056921       18.8297677183       -8.1349742031  MEMB      47              0.0000000000
      6223        47  POPC      H7S            -9.7864551563       20.4177167810       -8.5851699386  MEMB      47              0.0000000000
      6224        47  POPC      C28            -8.8305398648       20.0854354574       -6.6863209029  MEMB      47              0.0000000000
      6225        47  POPC      H8R            -9.6835677530       20.6859389508       -6.3041431282  MEMB      47              0.0000000000
      6226        47  POPC      H8S            -8.0061365141       20.8261185748       -6.7642258121  MEMB      47              0.0000000000
      6227        47  POPC      C29            -8.4908496160       18.9729794413       -5.7171699950  MEMB      47              0.0000000000
      6228        47  POPC      H91            -9.0066542829       18.0151836018       -5.8801802055  MEMB      47              0.0000000000
      6229        47  POPC      C210           -7.5028522277       19.0160565813       -4.7628986089  MEMB      47              0.0000000000
      6230        47  POPC      H101           -7.5182163164       18.1883583193       -4.0385508805  MEMB      47              0.0000000000
      6231        47  POPC      C211           -6.5573944467       20.1286106562       -4.3849474422  MEMB      47              0.0000000000
      6232        47  POPC      H11R           -6.7215859471       20.9940095201       -5.0620341229  MEMB      47              0.0000000000
      6233        47  POPC      H11S           -5.4985059588       19.7947232326       -4.3450032331  MEMB      47              0.0000000000
      6234        47  POPC      C212           -6.8315191974       20.5995282971       -2.9371693602  MEMB      47              0.0000000000
      6235        47  POPC      H12R           -7.9267291239       20.7853067912       -2.9192127676  MEMB      47              0.0000000000
      6236        47  POPC      H12S           -6.3201964710       21.5846939219       -2.8890202253  MEMB      47              0.0000000000
      6237        47  POPC      C213           -6.4418881450       19.5986178028       -1.8249389399  MEMB      47              0.0000000000
      6238        47  POPC      H13R           -5.4946177363       19.0823146941       -2.0903266060  MEMB      47              0.0000000000
      6239        47  POPC      H13S           -7.2251540561       18.8133823533       -1.8899078108  MEMB      47              0.0000000000
      6240        47  POPC      C214           -6.4187833606       20.1425035698       -0.4302065004  MEMB      47              0.0000000000
      6241        47  POPC      H14R           -5.6934689725       20.9735096830       -0.2972812556  MEMB      47              0.0000000000
      6242        47  POPC      H14S           -6.1181352293       19.3093162559        0.2404137852  MEMB      47              0.0000000000
      6243        47  POPC      C215           -7.7295009291       20.7211661998        0.0614634663  MEMB      47              0.0000000000
      6244        47  POPC      H15R           -7.9084840829       21.5955069802       -0.6002121361  MEMB      47              0.0000000000
      6245        47  POPC      H15S           -7.7606480780       21.0339989254        1.1270560766  MEMB      47              0.0000000000
      6246        47  POPC      C216           -8.8706472981       19.6977639026       -0.0868972777  MEMB      47              0.0000000000
      6247        47  POPC      H16R           -8.8764305899       19.4589466669       -1.1719108565  MEMB      47              0.0000000000
      6248        47  POPC      H16S           -9.8455340981       20.2035437859        0.0807415640  MEMB      47              0.0000000000
      6249        47  POPC      C217           -8.7378333391       18.4679549635        0.8170588939  MEMB      47              0.0000000000
      6250        47  POPC      H17R           -8.5603216344       18.8714603746        1.8368594087  MEMB      47              0.0000000000
      6251        47  POPC      H17S           -7.8406944309       17.9271716567        0.4469006807  MEMB      47              0.0000000000
      6252        47  POPC      C218          -10.0814568659       17.6608883270        0.8654470792  MEMB      47              0.0000000000
      6253        47  POPC      H18R          -10.3407811673       17.4349056739       -0.1909642110  MEMB      47              0.0000000000
      6254        47  POPC      H18S          -10.8497592895       18.2158632662        1.4451318549  MEMB      47              0.0000000000
      6255        47  POPC      H18T           -9.9008362576       16.6765386788        1.3478905372  MEMB      47              0.0000000000
      6256        47  POPC      C33            -5.2765685825       14.0598931208      -10.9400447707  MEMB      47              0.0000000000
      6257        47  POPC      H3X            -5.5844388117       13.0288014620      -11.2164263536  MEMB      47              0.0000000000
      6258        47  POPC      H3Y            -6.1960665851       14.5934453859      -11.2627929102  MEMB      47              0.0000000000
      6259        47  POPC      C34            -4.9934246607       14.4418958077       -9.4763446387  MEMB      47              0.0000000000
      6260        47  POPC      H4X            -4.5512331312       15.4597266776       -9.5293327985  MEMB      47              0.0000000000
      6261        47  POPC      H4Y            -4.3175435941       13.7504149167       -8.9292061267  MEMB      47              0.0000000000
      6262        47  POPC      C35            -6.3609769566       14.6243024694       -8.7207987374  MEMB      47              0.0000000000
      6263        47  POPC      H5X            -6.8036216832       13.6257860830       -8.5174478652  MEMB      47              0.0000000000
      6264        47  POPC      H5Y            -7.1474302704       15.1524512353       -9.3012052433  MEMB      47              0.0000000000
      6265        47  POPC      C36            -6.2388747570       15.2369043234       -7.3135962170  MEMB      47              0.0000000000
      6266        47  POPC      H6X            -7.2365401194       15.5322122629       -6.9240091096  MEMB      47              0.0000000000
      6267        47  POPC      H6Y            -5.6599924752       16.1733585427       -7.4628265363  MEMB      47              0.0000000000
      6268        47  POPC      C37            -5.4623390309       14.4068030055       -6.3217604717  MEMB      47              0.0000000000
      6269        47  POPC      H7X            -4.4372534763       14.3138340542       -6.7399440185  MEMB      47              0.0000000000
      6270        47  POPC      H7Y            -5.8234289194       13.3561213483       -6.3234896631  MEMB      47              0.0000000000
      6271        47  POPC      C38            -5.3968220166       14.9471920210       -4.8126540677  MEMB      47              0.0000000000
      6272        47  POPC      H8X            -5.1169954966       14.0882888080       -4.1658905822  MEMB      47              0.0000000000
      6273        47  POPC      H8Y            -6.4416967042       15.2813400548       -4.6368614148  MEMB      47              0.0000000000
      6274        47  POPC      C39            -4.5223160888       16.0818021008       -4.5015836267  MEMB      47              0.0000000000
      6275        47  POPC      H9X            -4.6255279023       16.8919973797       -5.2547448453  MEMB      47              0.0000000000
      6276        47  POPC      H9Y            -3.4894335287       15.7321270765       -4.7141913059  MEMB      47              0.0000000000
      6277        47  POPC      C310           -4.6315345829       16.6667931010       -3.0927599675  MEMB      47              0.0000000000
      6278        47  POPC      H10X           -5.6423536631       17.1216650610       -3.0175447785  MEMB      47              0.0000000000
      6279        47  POPC      H10Y           -3.9761388173       17.5398560732       -2.8865120595  MEMB      47              0.0000000000
      6280        47  POPC      C311           -4.6511668081       15.7137299120       -1.9264236765  MEMB      47              0.0000000000
      6281        47  POPC      H11X           -5.5035299672       15.0035580890       -1.9851940358  MEMB      47              0.0000000000
      6282        47  POPC      H11Y           -4.8023291205       16.3487023454       -1.0273789776  MEMB      47              0.0000000000
      6283        47  POPC      C312           -3.4097118563       14.7991238251       -1.8575933702  MEMB      47              0.0000000000
      6284        47  POPC      H12X           -2.4952035226       15.3699488815       -2.1262090642  MEMB      47              0.0000000000
      6285        47  POPC      H12Y           -3.6209025437       13.9730699234       -2.5698817213  MEMB      47              0.0000000000
      6286        47  POPC      C313           -3.1626565275       14.1011648119       -0.4707562379  MEMB      47              0.0000000000
      6287        47  POPC      H13X           -3.5094909913       14.7921234151        0.3271177579  MEMB      47              0.0000000000
      6288        47  POPC      H13Y           -2.0622191600       13.9497501916       -0.4499681038  MEMB      47              0.0000000000
      6289        47  POPC      C314           -3.8746041755       12.8047709261       -0.2574167369  MEMB      47              0.0000000000
      6290        47  POPC      H14X           -3.4256239576       12.3152847842        0.6331679579  MEMB      47              0.0000000000
      6291        47  POPC      H14Y           -3.6310442286       12.0987898834       -1.0799675462  MEMB      47              0.0000000000
      6292        47  POPC      C315           -5.3627453740       12.7285548393       -0.0905559990  MEMB      47              0.0000000000
      6293        47  POPC      H15X           -5.6731482320       11.6911325625        0.1578914715  MEMB      47              0.0000000000
      6294        47  POPC      H15Y           -5.7565260534       13.0113736895       -1.0901918030  MEMB      47              0.0000000000
      6295        47  POPC      C316           -5.9617685150       13.7351995366        0.9688817609  MEMB      47              0.0000000000
      6296        47  POPC      H16X           -5.6152881859       13.3467560976        1.9504042933  MEMB      47              0.0000000000
      6297        47  POPC      H16Y           -7.0702995253       13.7185764714        1.0410185491  MEMB      47              0.0000000000
      6298        47  POPC      H16Z           -5.6797525871       14.7636314721        0.6572495322  MEMB      47              0.0000000000
      6299        48  POPC      N               9.2719619866       13.0861134074      -18.6791083148  MEMB      48              0.0000000000
      6300        48  POPC      C12            10.6959639857       13.4433244835      -18.4070122736  MEMB      48              0.0000000000
      6301        48  POPC      H12A           11.2119557124       13.1292069936      -19.3022678921  MEMB      48              0.0000000000
      6302        48  POPC      H12B           10.9255191247       13.0348699100      -17.4339401329  MEMB      48              0.0000000000
      6303        48  POPC      C13             8.3567077559       13.8979786372      -17.7881774807  MEMB      48              0.0000000000
      6304        48  POPC      H13A            7.3139535358       13.6565331157      -17.9322868567  MEMB      48              0.0000000000
      6305        48  POPC      H13B            8.5259113853       13.6633558463      -16.7476379130  MEMB      48              0.0000000000
      6306        48  POPC      H13C            8.5488849837       14.9443387075      -17.9741838454  MEMB      48              0.0000000000
      6307        48  POPC      C14             8.9651498691       13.4333094440      -20.0856617686  MEMB      48              0.0000000000
      6308        48  POPC      H14A            9.2525328337       14.4264878578      -20.3977639352  MEMB      48              0.0000000000
      6309        48  POPC      H14B            9.5843705813       12.7640075213      -20.6644541410  MEMB      48              0.0000000000
      6310        48  POPC      H14C            7.9446239344       13.1754371213      -20.3273825471  MEMB      48              0.0000000000
      6311        48  POPC      C15             9.2665886593       11.5746673600      -18.5283239519  MEMB      48              0.0000000000
      6312        48  POPC      H15A            8.3771051544       11.2438184137      -19.0438415054  MEMB      48              0.0000000000
      6313        48  POPC      H15B            9.1478545451       11.2736683366      -17.4979348016  MEMB      48              0.0000000000
      6314        48  POPC      H15C           10.0150717036       11.0094438898      -19.0637633628  MEMB      48              0.0000000000
      6315        48  POPC      C11            10.9741814845       14.9375497957      -18.1050444754  MEMB      48              0.0000000000
      6316        48  POPC      H11A           12.0727782519       15.0045657140      -17.9536673250  MEMB      48              0.0000000000
      6317        48  POPC      H11B           10.5551897102       15.1653898456      -17.1016223830  MEMB      48              0.0000000000
      6318        48  POPC      P              11.1978715262       17.1798116010      -19.5472313469  MEMB      48              0.0000000000
      6319        48  POPC      O13            10.2305869507       17.8318720059      -20.4534134716  MEMB      48              0.0000000000
      6320        48  POPC      O14            12.6075479928       16.9478551065      -20.0315485654  MEMB      48              0.0000000000
      6321        48  POPC      O12            10.5444983502       15.8296266549      -19.1946211833  MEMB      48              0.0000000000
      6322        48  POPC      O11            11.2837058127       17.8987095702      -18.1798571674  MEMB      48              0.0000000000
      6323        48  POPC      C1             10.0840194065       18.3624014762      -17.5814234161  MEMB      48              0.0000000000
      6324        48  POPC      HA              9.2311866132       17.6564220618      -17.4887390437  MEMB      48              0.0000000000
      6325        48  POPC      HB              9.6587763323       19.1697835508      -18.2151611227  MEMB      48              0.0000000000
      6326        48  POPC      C2             10.4343924149       18.7241415090      -16.0744786148  MEMB      48              0.0000000000
      6327        48  POPC      HS             10.6709066566       19.8095061634      -16.0553577700  MEMB      48              0.0000000000
      6328        48  POPC      O21            11.5770549355       17.9400069176      -15.6630159104  MEMB      48              0.0000000000
      6329        48  POPC      C21            12.1987648217       18.3604580627      -14.5667134760  MEMB      48              0.0000000000
      6330        48  POPC      O22            11.8904064817       19.3281046828      -13.8971559157  MEMB      48              0.0000000000
      6331        48  POPC      C22            13.3685954056       17.3822438885      -14.2273394239  MEMB      48              0.0000000000
      6332        48  POPC      H2R            13.7285377163       17.5217087655      -13.1855561687  MEMB      48              0.0000000000
      6333        48  POPC      H2S            14.0802426096       17.5810367183      -15.0570142219  MEMB      48              0.0000000000
      6334        48  POPC      C3              9.2001261270       18.4230044432      -15.2136500580  MEMB      48              0.0000000000
      6335        48  POPC      HX              8.3400401275       19.0096148419      -15.6015438025  MEMB      48              0.0000000000
      6336        48  POPC      HY              9.3777912874       18.8900402547      -14.2213631751  MEMB      48              0.0000000000
      6337        48  POPC      O31             8.8617242889       17.0394941559      -15.1763911404  MEMB      48              0.0000000000
      6338        48  POPC      C31             8.9517021143       16.4467819228      -13.9882544353  MEMB      48              0.0000000000
      6339        48  POPC      O32             9.5813616176       16.7555921352      -13.0267724843  MEMB      48              0.0000000000
      6340        48  POPC      C32             8.2658781345       15.0968420845      -14.0631268548  MEMB      48              0.0000000000
      6341        48  POPC      H2X             8.9785273544       14.3718487162      -14.5112748718  MEMB      48              0.0000000000
      6342        48  POPC      H2Y             7.3751107805       15.1843306779      -14.7213063162  MEMB      48              0.0000000000
      6343        48  POPC      C23            12.9356131089       15.9104321714      -14.3647616598  MEMB      48              0.0000000000
      6344        48  POPC      H3R            12.8019490648       15.6397561786      -15.4339619650  MEMB      48              0.0000000000
      6345        48  POPC      H3S            11.9651400464       15.7994462151      -13.8354358620  MEMB      48              0.0000000000
      6346        48  POPC      C24            13.9130493663       14.9407434051      -13.6498036344  MEMB      48              0.0000000000
      6347        48  POPC      H4R            14.9498018194       14.9823320234      -14.0469627523  MEMB      48              0.0000000000
      6348        48  POPC      H4S            13.5098164183       13.9056622220      -13.6680037934  MEMB      48              0.0000000000
      6349        48  POPC      C25            14.1247106411       15.1246616103      -12.0980440342  MEMB      48              0.0000000000
      6350        48  POPC      H5R            14.8292482565       15.9256865762      -11.7877111427  MEMB      48              0.0000000000
      6351        48  POPC      H5S            14.6838170963       14.2308557623      -11.7475701590  MEMB      48              0.0000000000
      6352        48  POPC      C26            12.8569214704       15.2982532949      -11.1998215747  MEMB      48              0.0000000000
      6353        48  POPC      H6R            12.2705361317       14.3554155557      -11.2389415896  MEMB      48              0.0000000000
      6354        48  POPC      H6S            12.2582255723       16.1561441889      -11.5738634731  MEMB      48              0.0000000000
      6355        48  POPC      C27            13.1708905025       15.7392244963       -9.7459583141  MEMB      48              0.0000000000
      6356        48  POPC      H7R            13.5913226411       16.7661299872       -9.6909772661  MEMB      48              0.0000000000
      6357        48  POPC      H7S            13.9163803888       14.9669245613       -9.4593954615  MEMB      48              0.0000000000
      6358        48  POPC      C28            11.9717791345       15.6634321498       -8.7029537179  MEMB      48              0.0000000000
      6359        48  POPC      H8R            12.3693890614       15.7273645712       -7.6675116328  MEMB      48              0.0000000000
      6360        48  POPC      H8S            11.4865682043       14.6671265398       -8.7821155894  MEMB      48              0.0000000000
      6361        48  POPC      C29            10.9790352208       16.7780981133       -9.0258614715  MEMB      48              0.0000000000
      6362        48  POPC      H91            10.7869126765       16.9438711163      -10.0961921211  MEMB      48              0.0000000000
      6363        48  POPC      C210           10.3069059827       17.5008374805       -8.1017516358  MEMB      48              0.0000000000
      6364        48  POPC      H101            9.5788034473       18.2200288328       -8.5050269399  MEMB      48              0.0000000000
      6365        48  POPC      C211           10.3608727551       17.3643836934       -6.6152869166  MEMB      48              0.0000000000
      6366        48  POPC      H11R           11.1596380237       18.0259432294       -6.2169975756  MEMB      48              0.0000000000
      6367        48  POPC      H11S           10.5774193709       16.3084915761       -6.3459906190  MEMB      48              0.0000000000
      6368        48  POPC      C212            8.9462676702       17.7723121264       -6.1153948334  MEMB      48              0.0000000000
      6369        48  POPC      H12R            8.2376643178       17.0414036231       -6.5603383249  MEMB      48              0.0000000000
      6370        48  POPC      H12S            8.7579702822       18.8518534077       -6.2983034668  MEMB      48              0.0000000000
      6371        48  POPC      C213            8.7696841237       17.6733730722       -4.5292909137  MEMB      48              0.0000000000
      6372        48  POPC      H13R            9.0245827036       16.6181890204       -4.2927872517  MEMB      48              0.0000000000
      6373        48  POPC      H13S            7.7209648364       17.8471467989       -4.2063190012  MEMB      48              0.0000000000
      6374        48  POPC      C214            9.7418502735       18.7081194735       -3.8886711298  MEMB      48              0.0000000000
      6375        48  POPC      H14R            9.5953639275       19.7338026950       -4.2897155994  MEMB      48              0.0000000000
      6376        48  POPC      H14S           10.6982155950       18.2749955852       -4.2521136421  MEMB      48              0.0000000000
      6377        48  POPC      C215            9.8404521151       18.7497535653       -2.3682378044  MEMB      48              0.0000000000
      6378        48  POPC      H15R           10.7957390563       19.2475461196       -2.0962985651  MEMB      48              0.0000000000
      6379        48  POPC      H15S            9.9319467211       17.7009938056       -2.0131971862  MEMB      48              0.0000000000
      6380        48  POPC      C216            8.5959457438       19.4459029718       -1.6785365325  MEMB      48              0.0000000000
      6381        48  POPC      H16R            7.7752451643       18.7527652235       -1.9619642388  MEMB      48              0.0000000000
      6382        48  POPC      H16S            8.4171535356       20.3665762094       -2.2741156798  MEMB      48              0.0000000000
      6383        48  POPC      C217            8.5020723998       19.7770203412       -0.1593327126  MEMB      48              0.0000000000
      6384        48  POPC      H17R            7.6604817600       20.4961156777       -0.0647336362  MEMB      48              0.0000000000
      6385        48  POPC      H17S            9.4063300458       20.4001863601        0.0089028651  MEMB      48              0.0000000000
      6386        48  POPC      C218            8.3700214322       18.5164461030        0.7173736166  MEMB      48              0.0000000000
      6387        48  POPC      H18R            8.6443461928       18.8084340173        1.7536225788  MEMB      48              0.0000000000
      6388        48  POPC      H18S            9.2323743315       17.8843409072        0.4155279273  MEMB      48              0.0000000000
      6389        48  POPC      H18T            7.4538893870       17.8879424865        0.7198595294  MEMB      48              0.0000000000
      6390        48  POPC      C33             7.8439944397       14.6227493117      -12.6574963947  MEMB      48              0.0000000000
      6391        48  POPC      H3X             7.0184719445       13.8797057460      -12.6843262766  MEMB      48              0.0000000000
      6392        48  POPC      H3Y             7.4227525784       15.4181433098      -12.0061709704  MEMB      48              0.0000000000
      6393        48  POPC      C34             9.0131588531       13.9813345303      -11.9424435742  MEMB      48              0.0000000000
      6394        48  POPC      H4X             9.9888280418       14.4008369836      -12.2686463929  MEMB      48              0.0000000000
      6395        48  POPC      H4Y             8.9403737284       12.9585581248      -12.3701720669  MEMB      48              0.0000000000
      6396        48  POPC      C35             8.9510938883       13.8211814336      -10.4045270702  MEMB      48              0.0000000000
      6397        48  POPC      H5X             9.2768615577       14.8060712992      -10.0067979077  MEMB      48              0.0000000000
      6398        48  POPC      H5Y             9.6933588510       13.0793734719      -10.0397192834  MEMB      48              0.0000000000
      6399        48  POPC      C36             7.5392782132       13.7204424268       -9.8350408299  MEMB      48              0.0000000000
      6400        48  POPC      H6X             6.7633993064       13.1312805240      -10.3691017612  MEMB      48              0.0000000000
      6401        48  POPC      H6Y             7.0576044493       14.7201198169       -9.7806685399  MEMB      48              0.0000000000
      6402        48  POPC      C37             7.4955973991       13.2120793506       -8.3964599620  MEMB      48              0.0000000000
      6403        48  POPC      H7X             7.8955580155       12.1763069157       -8.4355477412  MEMB      48              0.0000000000
      6404        48  POPC      H7Y             6.4741681496       13.1507191796       -7.9637496255  MEMB      48              0.0000000000
      6405        48  POPC      C38             8.3179261576       14.0669383668       -7.4339149487  MEMB      48              0.0000000000
      6406        48  POPC      H8X             8.1435983380       15.0890474307       -7.8329438984  MEMB      48              0.0000000000
      6407        48  POPC      H8Y             9.4237986727       14.0165550879       -7.5278761706  MEMB      48              0.0000000000
      6408        48  POPC      C39             7.9179252994       13.9029535666       -5.9947632388  MEMB      48              0.0000000000
      6409        48  POPC      H9X             7.1980525431       13.0656489394       -5.8721864988  MEMB      48              0.0000000000
      6410        48  POPC      H9Y             7.2243014996       14.7666351330       -5.9095507393  MEMB      48              0.0000000000
      6411        48  POPC      C310            9.0266573010       13.8070777759       -4.9125889487  MEMB      48              0.0000000000
      6412        48  POPC      H10X            9.7417293488       14.6570479645       -4.9359060648  MEMB      48              0.0000000000
      6413        48  POPC      H10Y            9.6958245132       12.9456355393       -5.1234288924  MEMB      48              0.0000000000
      6414        48  POPC      C311            8.3262061886       13.7233004835       -3.5531945178  MEMB      48              0.0000000000
      6415        48  POPC      H11X            7.7680988144       12.7626578475       -3.5548148317  MEMB      48              0.0000000000
      6416        48  POPC      H11Y            7.6187393666       14.5733804078       -3.4474805934  MEMB      48              0.0000000000
      6417        48  POPC      C312            9.2304671687       13.6513621185       -2.2551047877  MEMB      48              0.0000000000
      6418        48  POPC      H12X            9.6522588840       12.6460819736       -2.0410379963  MEMB      48              0.0000000000
      6419        48  POPC      H12Y            8.5840710641       13.7049520870       -1.3530955474  MEMB      48              0.0000000000
      6420        48  POPC      C313           10.4124655937       14.6676186726       -2.1338397185  MEMB      48              0.0000000000
      6421        48  POPC      H13X           10.1280098155       15.7415768456       -2.1382873039  MEMB      48              0.0000000000
      6422        48  POPC      H13Y           11.1428144977       14.5172929062       -2.9574388276  MEMB      48              0.0000000000
      6423        48  POPC      C314           11.1538806921       14.5822638613       -0.8558045390  MEMB      48              0.0000000000
      6424        48  POPC      H14X           11.7529434537       13.6562231684       -0.7220386878  MEMB      48              0.0000000000
      6425        48  POPC      H14Y           10.5485306521       14.7037620213        0.0678347165  MEMB      48              0.0000000000
      6426        48  POPC      C315           12.1935172496       15.6478255439       -0.6842996509  MEMB      48              0.0000000000
      6427        48  POPC      H15X           12.5968303172       15.5538885503        0.3466401155  MEMB      48              0.0000000000
      6428        48  POPC      H15Y           11.7007096151       16.6435451199       -0.6863280878  MEMB      48              0.0000000000
      6429        48  POPC      C316           13.4186770114       15.5886505122       -1.6348244949  MEMB      48              0.0000000000
      6430        48  POPC      H16X           13.0503719277       15.6048668607       -2.6828737938  MEMB      48              0.0000000000
      6431        48  POPC      H16Y           14.0530591050       14.6849882353       -1.5112337419  MEMB      48              0.0000000000
      6432        48  POPC      H16Z           14.0444259633       16.5046825186       -1.5744566278  MEMB      48              0.0000000000
      6433        49  POPC      N               5.5720874703      -17.4848351812      -20.3626810324  MEMB      49              0.0000000000
      6434        49  POPC      C12             4.0473196490      -17.4290945739      -20.1767301551  MEMB      49              0.0000000000
      6435        49  POPC      H12A            3.6899325623      -17.0354071797      -21.1167750896  MEMB      49              0.0000000000
      6436        49  POPC      H12B            3.7434427289      -16.7735832369      -19.3740074687  MEMB      49              0.0000000000
      6437        49  POPC      C13             5.8915081133      -18.6779596124      -21.3061059905  MEMB      49              0.0000000000
      6438        49  POPC      H13A            5.5861059163      -18.4441347188      -22.3152916750  MEMB      49              0.0000000000
      6439        49  POPC      H13B            6.9595038328      -18.8376308660      -21.2890725042  MEMB      49              0.0000000000
      6440        49  POPC      H13C            5.4193742862      -19.5370735261      -20.8528810075  MEMB      49              0.0000000000
      6441        49  POPC      C14             6.0359984502      -16.1962785724      -21.1561828965  MEMB      49              0.0000000000
      6442        49  POPC      H14A            5.8145825938      -15.3208011252      -20.5638027965  MEMB      49              0.0000000000
      6443        49  POPC      H14B            7.1054202203      -16.2872840621      -21.2764127564  MEMB      49              0.0000000000
      6444        49  POPC      H14C            5.4175388592      -16.1970943968      -22.0415681713  MEMB      49              0.0000000000
      6445        49  POPC      C15             6.4054748362      -17.5725941639      -19.1232287060  MEMB      49              0.0000000000
      6446        49  POPC      H15A            6.0718081797      -18.4152009649      -18.5357932438  MEMB      49              0.0000000000
      6447        49  POPC      H15B            6.2075532633      -16.6542749911      -18.5903902273  MEMB      49              0.0000000000
      6448        49  POPC      H15C            7.4709362240      -17.6259786406      -19.2915796279  MEMB      49              0.0000000000
      6449        49  POPC      C11             3.2163203861      -18.6326262553      -19.7754136362  MEMB      49              0.0000000000
      6450        49  POPC      H11A            3.3048622275      -19.5431184891      -20.4058779136  MEMB      49              0.0000000000
      6451        49  POPC      H11B            2.1627668298      -18.3067841270      -19.9102201157  MEMB      49              0.0000000000
      6452        49  POPC      P               2.3829140193      -19.1290507367      -17.4040943801  MEMB      49              0.0000000000
      6453        49  POPC      O13             1.2088702917      -19.7152996911      -18.0930197292  MEMB      49              0.0000000000
      6454        49  POPC      O14             2.2434322181      -17.7816331100      -16.8191407999  MEMB      49              0.0000000000
      6455        49  POPC      O12             3.6414589819      -19.0171833104      -18.4689559024  MEMB      49              0.0000000000
      6456        49  POPC      O11             2.9802613910      -20.0597957115      -16.3144467763  MEMB      49              0.0000000000
      6457        49  POPC      C1              3.4287915100      -21.3464343327      -16.7341130619  MEMB      49              0.0000000000
      6458        49  POPC      HA              4.0779763241      -21.3696046914      -17.6354139273  MEMB      49              0.0000000000
      6459        49  POPC      HB              2.5971813364      -21.9585280370      -17.1440969061  MEMB      49              0.0000000000
      6460        49  POPC      C2              4.0200563488      -22.0906134282      -15.6121882848  MEMB      49              0.0000000000
      6461        49  POPC      HS              3.9341431413      -23.1871238864      -15.7690478005  MEMB      49              0.0000000000
      6462        49  POPC      O21             3.3366952134      -21.7058019754      -14.3622347784  MEMB      49              0.0000000000
      6463        49  POPC      C21             2.1896724367      -22.2923501352      -14.1411719307  MEMB      49              0.0000000000
      6464        49  POPC      O22             1.7478932300      -23.2598333138      -14.6586989754  MEMB      49              0.0000000000
      6465        49  POPC      C22             1.5145087975      -21.3655659489      -13.0441249698  MEMB      49              0.0000000000
      6466        49  POPC      H2R             0.6880516582      -21.9879813008      -12.6392932060  MEMB      49              0.0000000000
      6467        49  POPC      H2S             1.1092982113      -20.4642016591      -13.5517351406  MEMB      49              0.0000000000
      6468        49  POPC      C3              5.5262113332      -21.7321275851      -15.5030696185  MEMB      49              0.0000000000
      6469        49  POPC      HX              6.0760453267      -22.0337672494      -16.4201394455  MEMB      49              0.0000000000
      6470        49  POPC      HY              5.9471382410      -22.2642196930      -14.6232858044  MEMB      49              0.0000000000
      6471        49  POPC      O31             5.6291998822      -20.3145741096      -15.2228053039  MEMB      49              0.0000000000
      6472        49  POPC      C31             5.8620789008      -19.8611982746      -13.9108461262  MEMB      49              0.0000000000
      6473        49  POPC      O32             5.9953134002      -20.5543039953      -12.8982703305  MEMB      49              0.0000000000
      6474        49  POPC      C32             6.1527674621      -18.3469571357      -13.8688299349  MEMB      49              0.0000000000
      6475        49  POPC      H2X             7.1619856087      -18.2516154168      -14.3234828340  MEMB      49              0.0000000000
      6476        49  POPC      H2Y             6.1929541126      -18.0047449069      -12.8126118863  MEMB      49              0.0000000000
      6477        49  POPC      C23             2.4434228239      -20.9648854545      -11.8651976769  MEMB      49              0.0000000000
      6478        49  POPC      H3R             1.8183153485      -20.4143020080      -11.1300654068  MEMB      49              0.0000000000
      6479        49  POPC      H3S             3.2239629443      -20.2963778683      -12.2873062015  MEMB      49              0.0000000000
      6480        49  POPC      C24             3.1283923616      -22.1368318228      -11.0418380389  MEMB      49              0.0000000000
      6481        49  POPC      H4R             3.8912789507      -22.4723546206      -11.7765146226  MEMB      49              0.0000000000
      6482        49  POPC      H4S             2.3063003811      -22.8813335205      -10.9770067731  MEMB      49              0.0000000000
      6483        49  POPC      C25             3.7869477844      -21.6539855862       -9.7550044575  MEMB      49              0.0000000000
      6484        49  POPC      H5R             3.0995052918      -20.8730240040       -9.3653343790  MEMB      49              0.0000000000
      6485        49  POPC      H5S             4.7681272589      -21.1376680531       -9.8258847318  MEMB      49              0.0000000000
      6486        49  POPC      C26             4.0139587357      -22.8167198068       -8.6872650779  MEMB      49              0.0000000000
      6487        49  POPC      H6R             4.2682665408      -22.2133932575       -7.7896878445  MEMB      49              0.0000000000
      6488        49  POPC      H6S             4.8678493941      -23.4792815320       -8.9445666255  MEMB      49              0.0000000000
      6489        49  POPC      C27             2.7950717143      -23.6269685391       -8.2092693129  MEMB      49              0.0000000000
      6490        49  POPC      H7R             2.0956619625      -24.2055898779       -8.8498505187  MEMB      49              0.0000000000
      6491        49  POPC      H7S             2.1779880606      -22.9124967310       -7.6235570699  MEMB      49              0.0000000000
      6492        49  POPC      C28             3.2346296705      -24.7737228275       -7.2262854602  MEMB      49              0.0000000000
      6493        49  POPC      H8R             4.0474008477      -24.3537526341       -6.5959292395  MEMB      49              0.0000000000
      6494        49  POPC      H8S             3.6588129202      -25.5948876557       -7.8427902657  MEMB      49              0.0000000000
      6495        49  POPC      C29             2.1141585176      -25.2682329198       -6.3951892157  MEMB      49              0.0000000000
      6496        49  POPC      H91             1.5580305752      -26.1096992365       -6.8341159350  MEMB      49              0.0000000000
      6497        49  POPC      C210            1.6751941109      -24.7275228888       -5.2828922998  MEMB      49              0.0000000000
      6498        49  POPC      H101            0.7263222261      -25.0358574216       -4.8196737486  MEMB      49              0.0000000000
      6499        49  POPC      C211            2.2762428672      -23.4840127602       -4.6223794123  MEMB      49              0.0000000000
      6500        49  POPC      H11R            1.5239655404      -22.6768925130       -4.7525978493  MEMB      49              0.0000000000
      6501        49  POPC      H11S            3.2488451244      -23.1561098081       -5.0476389413  MEMB      49              0.0000000000
      6502        49  POPC      C212            2.4762331931      -23.8018496345       -3.1317141985  MEMB      49              0.0000000000
      6503        49  POPC      H12R            1.6515858043      -24.4658795184       -2.7950511077  MEMB      49              0.0000000000
      6504        49  POPC      H12S            2.2334608132      -22.9030419728       -2.5254734674  MEMB      49              0.0000000000
      6505        49  POPC      C213            3.7876167945      -24.3332698833       -2.5460208945  MEMB      49              0.0000000000
      6506        49  POPC      H13R            4.4815633780      -23.4790211943       -2.6977385351  MEMB      49              0.0000000000
      6507        49  POPC      H13S            4.0825626398      -25.1829517973       -3.1982230875  MEMB      49              0.0000000000
      6508        49  POPC      C214            3.6646701342      -24.6527683082       -1.0001273469  MEMB      49              0.0000000000
      6509        49  POPC      H14R            2.9618248871      -25.4992476408       -0.8458469754  MEMB      49              0.0000000000
      6510        49  POPC      H14S            3.2687428288      -23.7070218453       -0.5721948968  MEMB      49              0.0000000000
      6511        49  POPC      C215            4.9844044285      -24.9178014133       -0.2633754276  MEMB      49              0.0000000000
      6512        49  POPC      H15R            5.4135961054      -25.7818420412       -0.8143290293  MEMB      49              0.0000000000
      6513        49  POPC      H15S            4.7543638181      -25.2501650326        0.7714840997  MEMB      49              0.0000000000
      6514        49  POPC      C216            5.9767092967      -23.7723772522       -0.1981859098  MEMB      49              0.0000000000
      6515        49  POPC      H16R            5.4234926864      -22.8110893265       -0.1333971181  MEMB      49              0.0000000000
      6516        49  POPC      H16S            6.6023348279      -23.5934528424       -1.0986861049  MEMB      49              0.0000000000
      6517        49  POPC      C217            6.9572040781      -23.9253867163        1.0155186344  MEMB      49              0.0000000000
      6518        49  POPC      H17R            6.6336843876      -24.0975408776        2.0643366410  MEMB      49              0.0000000000
      6519        49  POPC      H17S            7.3942014373      -22.9042843071        1.0420500277  MEMB      49              0.0000000000
      6520        49  POPC      C218            8.0979412525      -24.8663669871        0.5812797436  MEMB      49              0.0000000000
      6521        49  POPC      H18R            8.4872713329      -24.4863020594       -0.3873771721  MEMB      49              0.0000000000
      6522        49  POPC      H18S            7.8305248495      -25.9436287073        0.5331503776  MEMB      49              0.0000000000
      6523        49  POPC      H18T            8.9737789511      -24.8714756601        1.2648024183  MEMB      49              0.0000000000
      6524        49  POPC      C33             5.1596145853      -17.3977323072      -14.7549646843  MEMB      49              0.0000000000
      6525        49  POPC      H3X             4.1730599598      -17.8827646448      -14.5944201981  MEMB      49              0.0000000000
      6526        49  POPC      H3Y             5.3865734609      -17.6490948927      -15.8130891160  MEMB      49              0.0000000000
      6527        49  POPC      C34             5.2003704607      -15.9222201168      -14.4725219812  MEMB      49              0.0000000000
      6528        49  POPC      H4X             5.7165996608      -15.3975833691      -15.3047387960  MEMB      49              0.0000000000
      6529        49  POPC      H4Y             5.8495053853      -15.9401823849      -13.5710665039  MEMB      49              0.0000000000
      6530        49  POPC      C35             3.9017693666      -15.2472539901      -14.1840579881  MEMB      49              0.0000000000
      6531        49  POPC      H5X             3.0406964540      -15.9492874702      -14.1792376716  MEMB      49              0.0000000000
      6532        49  POPC      H5Y             3.7148348007      -14.4952735135      -14.9802377680  MEMB      49              0.0000000000
      6533        49  POPC      C36             3.9226994470      -14.5211155905      -12.8453420311  MEMB      49              0.0000000000
      6534        49  POPC      H6X             3.0634674403      -13.8389339357      -12.6702146249  MEMB      49              0.0000000000
      6535        49  POPC      H6Y             4.8892611188      -13.9823007085      -12.9441251215  MEMB      49              0.0000000000
      6536        49  POPC      C37             3.8977963218      -15.3793454893      -11.5645558413  MEMB      49              0.0000000000
      6537        49  POPC      H7X             3.9387419819      -14.7705179289      -10.6361310446  MEMB      49              0.0000000000
      6538        49  POPC      H7Y             4.7097779671      -16.1372434402      -11.5890029617  MEMB      49              0.0000000000
      6539        49  POPC      C38             2.5917420183      -16.1412136837      -11.4686569374  MEMB      49              0.0000000000
      6540        49  POPC      H8X             2.2903501382      -16.6737431048      -12.3959629582  MEMB      49              0.0000000000
      6541        49  POPC      H8Y             1.7726192834      -15.4889138399      -11.0973561098  MEMB      49              0.0000000000
      6542        49  POPC      C39             2.6095950922      -17.3591407956      -10.4615978457  MEMB      49              0.0000000000
      6543        49  POPC      H9X             3.3911333950      -17.9975626145      -10.9262875379  MEMB      49              0.0000000000
      6544        49  POPC      H9Y             1.6065922018      -17.8367941418      -10.4492126369  MEMB      49              0.0000000000
      6545        49  POPC      C310            3.0026876320      -17.0747683389       -9.0376427110  MEMB      49              0.0000000000
      6546        49  POPC      H10X            2.3131873164      -16.4237929333       -8.4587284903  MEMB      49              0.0000000000
      6547        49  POPC      H10Y            3.9954864896      -16.5847574217       -9.1301664108  MEMB      49              0.0000000000
      6548        49  POPC      C311            3.2191223958      -18.3965610710       -8.1763826068  MEMB      49              0.0000000000
      6549        49  POPC      H11X            3.9033541467      -18.9746974623       -8.8335782732  MEMB      49              0.0000000000
      6550        49  POPC      H11Y            2.2969409915      -19.0117263946       -8.1023965090  MEMB      49              0.0000000000
      6551        49  POPC      C312            3.7245039038      -18.0847097168       -6.7637709609  MEMB      49              0.0000000000
      6552        49  POPC      H12X            3.0619251573      -17.3547834805       -6.2514056382  MEMB      49              0.0000000000
      6553        49  POPC      H12Y            4.7712708879      -17.7264425884       -6.8649860673  MEMB      49              0.0000000000
      6554        49  POPC      C313            3.7476839949      -19.3271281473       -5.8917683046  MEMB      49              0.0000000000
      6555        49  POPC      H13X            4.4912925722      -19.9786298953       -6.3986339497  MEMB      49              0.0000000000
      6556        49  POPC      H13Y            2.7617815981      -19.8161335586       -5.7394809571  MEMB      49              0.0000000000
      6557        49  POPC      C314            4.2416462244      -18.9689871097       -4.4325335218  MEMB      49              0.0000000000
      6558        49  POPC      H14X            3.7525594940      -18.0565480860       -4.0293335273  MEMB      49              0.0000000000
      6559        49  POPC      H14Y            5.2620224865      -18.6095127954       -4.6853800201  MEMB      49              0.0000000000
      6560        49  POPC      C315            4.3195210029      -20.1576366027       -3.4146961885  MEMB      49              0.0000000000
      6561        49  POPC      H15X            4.9672708840      -20.9831462846       -3.7797643658  MEMB      49              0.0000000000
      6562        49  POPC      H15Y            3.2913897017      -20.5537386093       -3.5574209707  MEMB      49              0.0000000000
      6563        49  POPC      C316            4.5755940221      -19.8500418915       -1.9523819560  MEMB      49              0.0000000000
      6564        49  POPC      H16X            5.5528068991      -19.3545178508       -1.7684482634  MEMB      49              0.0000000000
      6565        49  POPC      H16Y            4.6068927652      -20.7792444883       -1.3441699997  MEMB      49              0.0000000000
      6566        49  POPC      H16Z            3.8462431971      -19.0665354111       -1.6549157200  MEMB      49              0.0000000000
      6567        50  POPC      N               1.2103590493       18.3450731262      -20.2776205275  MEMB      50              0.0000000000
      6568        50  POPC      C12             1.0129309432       19.7865824152      -20.0372010081  MEMB      50              0.0000000000
      6569        50  POPC      H12A           -0.0538176176       19.9513176686      -20.0010068515  MEMB      50              0.0000000000
      6570        50  POPC      H12B            1.4728890622       20.3488038586      -20.8364166179  MEMB      50              0.0000000000
      6571        50  POPC      C13             0.5905452282       17.4833837289      -19.2334758740  MEMB      50              0.0000000000
      6572        50  POPC      H13A            0.7141919306       16.4394881685      -19.4812533029  MEMB      50              0.0000000000
      6573        50  POPC      H13B            0.9521322075       17.7743635683      -18.2582908930  MEMB      50              0.0000000000
      6574        50  POPC      H13C           -0.4805492611       17.6184773237      -19.2033721616  MEMB      50              0.0000000000
      6575        50  POPC      C14             0.6981655289       17.9231644173      -21.6301784694  MEMB      50              0.0000000000
      6576        50  POPC      H14A            0.7979440375       18.7282970139      -22.3430640923  MEMB      50              0.0000000000
      6577        50  POPC      H14B            1.3070702080       17.0905431401      -21.9501422359  MEMB      50              0.0000000000
      6578        50  POPC      H14C           -0.2660913495       17.4584608579      -21.4864453302  MEMB      50              0.0000000000
      6579        50  POPC      C15             2.6978354530       18.1462684986      -20.3311383865  MEMB      50              0.0000000000
      6580        50  POPC      H15A            3.2293666486       18.7465099055      -21.0547300431  MEMB      50              0.0000000000
      6581        50  POPC      H15B            2.8391650368       17.1419783682      -20.7023894716  MEMB      50              0.0000000000
      6582        50  POPC      H15C            3.1550650145       18.0858709170      -19.3545662269  MEMB      50              0.0000000000
      6583        50  POPC      C11             1.7856021607       20.3076472362      -18.7505391522  MEMB      50              0.0000000000
      6584        50  POPC      H11A            1.5088492467       19.7647878071      -17.8215436999  MEMB      50              0.0000000000
      6585        50  POPC      H11B            1.4836898903       21.3736921770      -18.6685749095  MEMB      50              0.0000000000
      6586        50  POPC      P               4.0893055703       21.2155720654      -17.7696817414  MEMB      50              0.0000000000
      6587        50  POPC      O13             3.5610532952       22.6576007761      -17.7794188894  MEMB      50              0.0000000000
      6588        50  POPC      O14             5.5204832738       21.1030764380      -18.2015251337  MEMB      50              0.0000000000
      6589        50  POPC      O12             3.2199534272       20.2783291290      -18.6515023584  MEMB      50              0.0000000000
      6590        50  POPC      O11             3.9322438439       20.5926425660      -16.3377184562  MEMB      50              0.0000000000
      6591        50  POPC      C1              4.3633076140       19.2431660930      -16.3095907228  MEMB      50              0.0000000000
      6592        50  POPC      HA              5.3844669420       19.2014533165      -16.7452680596  MEMB      50              0.0000000000
      6593        50  POPC      HB              3.6799000396       18.6959412575      -16.9935644752  MEMB      50              0.0000000000
      6594        50  POPC      C2              4.4784694607       18.6573945729      -14.8758184248  MEMB      50              0.0000000000
      6595        50  POPC      HS              4.5250124793       17.5492892377      -14.9410655765  MEMB      50              0.0000000000
      6596        50  POPC      O21             3.3914617733       19.0323405162      -14.0739903743  MEMB      50              0.0000000000
      6597        50  POPC      C21             2.1272385341       18.8368019564      -14.4306718711  MEMB      50              0.0000000000
      6598        50  POPC      O22             1.7607159763       18.3252582578      -15.4262712065  MEMB      50              0.0000000000
      6599        50  POPC      C22             1.1372606748       19.4875143624      -13.3773862744  MEMB      50              0.0000000000
      6600        50  POPC      H2R             1.5044191507       19.2144864134      -12.3649775579  MEMB      50              0.0000000000
      6601        50  POPC      H2S             0.1322856480       19.0210112122      -13.4593672046  MEMB      50              0.0000000000
      6602        50  POPC      C3              5.7932599094       19.0282643844      -14.1706056216  MEMB      50              0.0000000000
      6603        50  POPC      HX              5.8673786418       20.1119621161      -13.9373103417  MEMB      50              0.0000000000
      6604        50  POPC      HY              6.6146389669       18.7386042068      -14.8603550819  MEMB      50              0.0000000000
      6605        50  POPC      O31             5.9376491988       18.2578617532      -13.0103482286  MEMB      50              0.0000000000
      6606        50  POPC      C31             5.7452313182       18.8477706502      -11.8283147708  MEMB      50              0.0000000000
      6607        50  POPC      O32             5.4146424378       19.9823695182      -11.6329458388  MEMB      50              0.0000000000
      6608        50  POPC      C32             6.0310026303       17.7976704198      -10.8253785533  MEMB      50              0.0000000000
      6609        50  POPC      H2X             6.3511395808       18.3487198206       -9.9153353045  MEMB      50              0.0000000000
      6610        50  POPC      H2Y             6.9043364825       17.1989831129      -11.1618041206  MEMB      50              0.0000000000
      6611        50  POPC      C23             0.9514476122       21.0333507854      -13.7017310238  MEMB      50              0.0000000000
      6612        50  POPC      H3R             0.8091839295       21.1587262660      -14.7964287226  MEMB      50              0.0000000000
      6613        50  POPC      H3S             1.9638403216       21.4329083495      -13.4787160363  MEMB      50              0.0000000000
      6614        50  POPC      C24            -0.2259969829       21.7280488234      -12.9082698794  MEMB      50              0.0000000000
      6615        50  POPC      H4R            -1.1643143525       21.5071233630      -13.4606044331  MEMB      50              0.0000000000
      6616        50  POPC      H4S            -0.1537497839       22.8365575131      -12.9258814776  MEMB      50              0.0000000000
      6617        50  POPC      C25            -0.3898094572       21.4971002548      -11.4129771392  MEMB      50              0.0000000000
      6618        50  POPC      H5R            -0.4966892918       20.4228893654      -11.1503579505  MEMB      50              0.0000000000
      6619        50  POPC      H5S            -1.2668040813       22.0707177558      -11.0439719997  MEMB      50              0.0000000000
      6620        50  POPC      C26             0.8039451906       21.8496240728      -10.5133363470  MEMB      50              0.0000000000
      6621        50  POPC      H6R             1.6684618823       21.2843543414      -10.9224840611  MEMB      50              0.0000000000
      6622        50  POPC      H6S             0.6854142353       21.5298442545       -9.4559755674  MEMB      50              0.0000000000
      6623        50  POPC      C27             1.1538193539       23.3407526443      -10.5204834290  MEMB      50              0.0000000000
      6624        50  POPC      H7R             0.2411593852       23.8280538636      -10.1156251779  MEMB      50              0.0000000000
      6625        50  POPC      H7S             1.5160767504       23.6848445655      -11.5127989306  MEMB      50              0.0000000000
      6626        50  POPC      C28             2.1793373633       23.6805500773       -9.4623323027  MEMB      50              0.0000000000
      6627        50  POPC      H8R             1.8162724467       23.1652793683       -8.5474547297  MEMB      50              0.0000000000
      6628        50  POPC      H8S             2.0950843279       24.7757141213       -9.2954848769  MEMB      50              0.0000000000
      6629        50  POPC      C29             3.6148673802       23.2593719496       -9.8191066327  MEMB      50              0.0000000000
      6630        50  POPC      H91             4.1003259585       23.9953632592      -10.4768656208  MEMB      50              0.0000000000
      6631        50  POPC      C210            4.2751724114       22.1298069705       -9.5177998848  MEMB      50              0.0000000000
      6632        50  POPC      H101            5.2101461351       22.0355712330      -10.0895889289  MEMB      50              0.0000000000
      6633        50  POPC      C211            3.8273368404       20.9333113713       -8.7583638671  MEMB      50              0.0000000000
      6634        50  POPC      H11R            3.8898565835       20.0558648222       -9.4369651508  MEMB      50              0.0000000000
      6635        50  POPC      H11S            2.8083337097       21.1467219236       -8.3705362399  MEMB      50              0.0000000000
      6636        50  POPC      C212            4.8232001991       20.6767002352       -7.6391695752  MEMB      50              0.0000000000
      6637        50  POPC      H12R            4.8086229768       21.6508119990       -7.1051146760  MEMB      50              0.0000000000
      6638        50  POPC      H12S            5.8521470179       20.4162594299       -7.9674377615  MEMB      50              0.0000000000
      6639        50  POPC      C213            4.4395193065       19.4970186332       -6.7137268903  MEMB      50              0.0000000000
      6640        50  POPC      H13R            4.4880604679       18.6164302975       -7.3893953851  MEMB      50              0.0000000000
      6641        50  POPC      H13S            3.3926370777       19.6903698394       -6.3959617681  MEMB      50              0.0000000000
      6642        50  POPC      C214            5.2426544051       19.5027263193       -5.4306763773  MEMB      50              0.0000000000
      6643        50  POPC      H14R            4.9805369170       20.3637493877       -4.7793283162  MEMB      50              0.0000000000
      6644        50  POPC      H14S            6.3391675411       19.4907957031       -5.6091080971  MEMB      50              0.0000000000
      6645        50  POPC      C215            5.0803985338       18.1968970788       -4.6332801758  MEMB      50              0.0000000000
      6646        50  POPC      H15R            5.4372243590       17.2965139719       -5.1776209197  MEMB      50              0.0000000000
      6647        50  POPC      H15S            4.0211973894       18.1394106601       -4.3029640991  MEMB      50              0.0000000000
      6648        50  POPC      C216            5.9410717124       18.2708376394       -3.4099781539  MEMB      50              0.0000000000
      6649        50  POPC      H16R            5.8406955778       19.2419561561       -2.8797196747  MEMB      50              0.0000000000
      6650        50  POPC      H16S            6.9472873144       18.1041460143       -3.8505059843  MEMB      50              0.0000000000
      6651        50  POPC      C217            5.7255900017       17.1021953963       -2.4301868763  MEMB      50              0.0000000000
      6652        50  POPC      H17R            6.5947512704       17.1757300609       -1.7420944855  MEMB      50              0.0000000000
      6653        50  POPC      H17S            5.8985953540       16.1590082243       -2.9912474081  MEMB      50              0.0000000000
      6654        50  POPC      C218            4.4468028380       17.2264018566       -1.7224976429  MEMB      50              0.0000000000
      6655        50  POPC      H18R            4.3566991409       18.2749947394       -1.3666116754  MEMB      50              0.0000000000
      6656        50  POPC      H18S            4.3710005305       16.5614368111       -0.8357083808  MEMB      50              0.0000000000
      6657        50  POPC      H18T            3.5918654644       16.9241494965       -2.3644059946  MEMB      50              0.0000000000
      6658        50  POPC      C33             4.8906843310       16.8122582253      -10.6268517843  MEMB      50              0.0000000000
      6659        50  POPC      H3X             5.2727070315       16.0624510474       -9.9014766974  MEMB      50              0.0000000000
      6660        50  POPC      H3Y             4.7245525279       16.2488905421      -11.5698988266  MEMB      50              0.0000000000
      6661        50  POPC      C34             3.6262641068       17.5232334257      -10.0670187995  MEMB      50              0.0000000000
      6662        50  POPC      H4X             3.2017558654       18.2786238930      -10.7623604205  MEMB      50              0.0000000000
      6663        50  POPC      H4Y             3.8421911733       18.1987062971       -9.2117803130  MEMB      50              0.0000000000
      6664        50  POPC      C35             2.4390278482       16.4852931126       -9.7895691922  MEMB      50              0.0000000000
      6665        50  POPC      H5X             2.7228320928       15.7926000041       -8.9686229693  MEMB      50              0.0000000000
      6666        50  POPC      H5Y             2.3005815872       15.8781467636      -10.7096380153  MEMB      50              0.0000000000
      6667        50  POPC      C36             1.1892113388       17.1358378039       -9.2835977001  MEMB      50              0.0000000000
      6668        50  POPC      H6X             0.4172675263       16.3382109885       -9.3306616957  MEMB      50              0.0000000000
      6669        50  POPC      H6Y             0.7946209034       17.9611461252       -9.9140623088  MEMB      50              0.0000000000
      6670        50  POPC      C37             1.3467177152       17.8364692725       -7.8911178608  MEMB      50              0.0000000000
      6671        50  POPC      H7X             2.2430726007       18.4885941401       -7.8162707170  MEMB      50              0.0000000000
      6672        50  POPC      H7Y             1.3945178459       17.0423187633       -7.1156436376  MEMB      50              0.0000000000
      6673        50  POPC      C38             0.1341301431       18.6492675572       -7.5042725475  MEMB      50              0.0000000000
      6674        50  POPC      H8X            -0.7632524769       18.0263069319       -7.7066219433  MEMB      50              0.0000000000
      6675        50  POPC      H8Y             0.1720027699       19.3412318649       -8.3726458205  MEMB      50              0.0000000000
      6676        50  POPC      C39             0.0580363339       19.3702458000       -6.1415212796  MEMB      50              0.0000000000
      6677        50  POPC      H9X            -0.8218646898       20.0443825456       -6.0664537323  MEMB      50              0.0000000000
      6678        50  POPC      H9Y             0.9686971607       20.0039526408       -6.2001146808  MEMB      50              0.0000000000
      6679        50  POPC      C310            0.3130645150       18.4106281934       -4.9395847125  MEMB      50              0.0000000000
      6680        50  POPC      H10X            1.3662974666       18.0681357251       -5.0274497159  MEMB      50              0.0000000000
      6681        50  POPC      H10Y           -0.4691267208       17.6223862170       -4.9053473343  MEMB      50              0.0000000000
      6682        50  POPC      C311            0.0502000537       19.1052748067       -3.5898057845  MEMB      50              0.0000000000
      6683        50  POPC      H11X           -0.1221948998       18.2951996277       -2.8492792080  MEMB      50              0.0000000000
      6684        50  POPC      H11Y           -0.8487414820       19.7566983728       -3.5465335184  MEMB      50              0.0000000000
      6685        50  POPC      C312            1.2638709135       19.9981565231       -3.1287957762  MEMB      50              0.0000000000
      6686        50  POPC      H12X            1.4410652055       20.7837367846       -3.8941630213  MEMB      50              0.0000000000
      6687        50  POPC      H12Y            2.2188769496       19.4423601855       -3.0131463290  MEMB      50              0.0000000000
      6688        50  POPC      C313            0.8670572170       20.7078395960       -1.8376224789  MEMB      50              0.0000000000
      6689        50  POPC      H13X            0.7420767115       20.0173111362       -0.9763038119  MEMB      50              0.0000000000
      6690        50  POPC      H13Y           -0.0558451975       21.2902543346       -2.0458654448  MEMB      50              0.0000000000
      6691        50  POPC      C314            1.9666529862       21.6548213332       -1.2967001905  MEMB      50              0.0000000000
      6692        50  POPC      H14X            1.4301061006       22.4562654670       -0.7452252089  MEMB      50              0.0000000000
      6693        50  POPC      H14Y            2.4882087835       22.1339218663       -2.1527172489  MEMB      50              0.0000000000
      6694        50  POPC      C315            3.2112088253       21.0824910393       -0.5997193402  MEMB      50              0.0000000000
      6695        50  POPC      H15X            3.6768601967       20.3596515078       -1.3032762366  MEMB      50              0.0000000000
      6696        50  POPC      H15Y            2.9458754846       20.5993831174        0.3649179914  MEMB      50              0.0000000000
      6697        50  POPC      C316            4.3133391475       22.1300442565       -0.3415729820  MEMB      50              0.0000000000
      6698        50  POPC      H16X            5.2062532275       21.7395349306        0.1918385843  MEMB      50              0.0000000000
      6699        50  POPC      H16Y            3.8767072073       22.9342481249        0.2884504219  MEMB      50              0.0000000000
      6700        50  POPC      H16Z            4.4850406422       22.5825240306       -1.3416244584  MEMB      50              0.0000000000
      6701        51  POPC      N             -10.3592460779      -16.3780947684      -21.0996695994  MEMB      51              0.0000000000
      6702        51  POPC      C12           -11.4960033513      -17.3563956958      -20.6787714658  MEMB      51              0.0000000000
      6703        51  POPC      H12A          -11.2800164653      -18.3469978883      -21.0508697374  MEMB      51              0.0000000000
      6704        51  POPC      H12B          -12.4487354061      -16.9472262715      -20.9809007829  MEMB      51              0.0000000000
      6705        51  POPC      C13           -10.3571798712      -16.3989082302      -22.5865382179  MEMB      51              0.0000000000
      6706        51  POPC      H13A          -10.2568505069      -17.4067135575      -22.9615881639  MEMB      51              0.0000000000
      6707        51  POPC      H13B          -11.3100161571      -16.1281550956      -23.0168820646  MEMB      51              0.0000000000
      6708        51  POPC      H13C           -9.5989969270      -15.7104284288      -22.9293997022  MEMB      51              0.0000000000
      6709        51  POPC      C14           -10.6576465968      -15.0495455724      -20.5823613637  MEMB      51              0.0000000000
      6710        51  POPC      H14A          -10.5825312478      -15.1027886197      -19.5062930596  MEMB      51              0.0000000000
      6711        51  POPC      H14B           -9.8401299329      -14.4230867801      -20.9073476352  MEMB      51              0.0000000000
      6712        51  POPC      H14C          -11.6831227988      -14.7802201883      -20.7879392709  MEMB      51              0.0000000000
      6713        51  POPC      C15            -9.0540058165      -16.7372817387      -20.5019122835  MEMB      51              0.0000000000
      6714        51  POPC      H15A           -9.1804644972      -16.5464057615      -19.4464623174  MEMB      51              0.0000000000
      6715        51  POPC      H15B           -8.3163338336      -16.0187492046      -20.8274138780  MEMB      51              0.0000000000
      6716        51  POPC      H15C           -8.7031105811      -17.7489039026      -20.6429560217  MEMB      51              0.0000000000
      6717        51  POPC      C11           -11.7734868462      -17.5944283328      -19.1354750654  MEMB      51              0.0000000000
      6718        51  POPC      H11A          -10.8594081384      -18.1083805511      -18.7685496190  MEMB      51              0.0000000000
      6719        51  POPC      H11B          -12.5259073125      -18.4104288028      -19.0872299105  MEMB      51              0.0000000000
      6720        51  POPC      P             -12.3583085393      -16.4891195502      -16.8347479129  MEMB      51              0.0000000000
      6721        51  POPC      O13           -12.7304082130      -17.8394499909      -16.4807201862  MEMB      51              0.0000000000
      6722        51  POPC      O14           -13.3132117304      -15.4364455722      -16.4609406193  MEMB      51              0.0000000000
      6723        51  POPC      O12           -12.0269986079      -16.4347669881      -18.3414780041  MEMB      51              0.0000000000
      6724        51  POPC      O11           -10.9010289576      -16.1395930655      -16.2973852851  MEMB      51              0.0000000000
      6725        51  POPC      C1            -10.1693636384      -15.0150975553      -16.6856300823  MEMB      51              0.0000000000
      6726        51  POPC      HA            -10.7947462471      -14.1269158815      -16.9187629931  MEMB      51              0.0000000000
      6727        51  POPC      HB             -9.5999056153      -15.2822893849      -17.6014069113  MEMB      51              0.0000000000
      6728        51  POPC      C2             -9.1825302202      -14.6355862837      -15.5943211579  MEMB      51              0.0000000000
      6729        51  POPC      HS             -8.5399934759      -13.9064709745      -16.1327064372  MEMB      51              0.0000000000
      6730        51  POPC      O21            -8.4399951826      -15.7426519600      -15.1647506480  MEMB      51              0.0000000000
      6731        51  POPC      C21            -7.2605064598      -15.5634058501      -14.5563243668  MEMB      51              0.0000000000
      6732        51  POPC      O22            -6.6763710839      -14.5042934516      -14.4460682015  MEMB      51              0.0000000000
      6733        51  POPC      C22            -6.6160919450      -16.9382490072      -14.1631907070  MEMB      51              0.0000000000
      6734        51  POPC      H2R            -5.6069392072      -16.8837026307      -13.7017191871  MEMB      51              0.0000000000
      6735        51  POPC      H2S            -6.4837652899      -17.5788915159      -15.0611817909  MEMB      51              0.0000000000
      6736        51  POPC      C3             -9.6860790214      -13.9073115108      -14.3285319308  MEMB      51              0.0000000000
      6737        51  POPC      HX            -10.2502133158      -13.0217623441      -14.6916795780  MEMB      51              0.0000000000
      6738        51  POPC      HY             -8.8025233359      -13.6117637835      -13.7233031761  MEMB      51              0.0000000000
      6739        51  POPC      O31           -10.5874267842      -14.7671178448      -13.6923033858  MEMB      51              0.0000000000
      6740        51  POPC      C31           -11.1113830384      -14.2306694568      -12.5658742873  MEMB      51              0.0000000000
      6741        51  POPC      O32           -10.7867357742      -13.1347582662      -12.0804211074  MEMB      51              0.0000000000
      6742        51  POPC      C32           -12.3045312459      -15.0590470332      -12.0224366864  MEMB      51              0.0000000000
      6743        51  POPC      H2X           -13.1369735908      -14.4810039961      -12.4776587034  MEMB      51              0.0000000000
      6744        51  POPC      H2Y           -12.3703770078      -14.9358930252      -10.9202487236  MEMB      51              0.0000000000
      6745        51  POPC      C23            -7.6169339660      -17.6645330132      -13.2352356370  MEMB      51              0.0000000000
      6746        51  POPC      H3R            -8.6196718453      -17.7745646862      -13.7007788901  MEMB      51              0.0000000000
      6747        51  POPC      H3S            -7.6006829415      -17.0583199163      -12.3043424199  MEMB      51              0.0000000000
      6748        51  POPC      C24            -7.1607066997      -19.1010032914      -13.0489818653  MEMB      51              0.0000000000
      6749        51  POPC      H4R            -6.1082886427      -19.1237195420      -12.6937050433  MEMB      51              0.0000000000
      6750        51  POPC      H4S            -7.1362676097      -19.6482293455      -14.0155566137  MEMB      51              0.0000000000
      6751        51  POPC      C25            -7.9237270614      -19.9278444632      -12.0112787975  MEMB      51              0.0000000000
      6752        51  POPC      H5R            -7.4295406521      -20.9224454438      -11.9817820122  MEMB      51              0.0000000000
      6753        51  POPC      H5S            -8.9896233899      -20.0606928835      -12.2950700469  MEMB      51              0.0000000000
      6754        51  POPC      C26            -7.9531354417      -19.0953925924      -10.6469854849  MEMB      51              0.0000000000
      6755        51  POPC      H6R            -8.5989250538      -18.2055808026      -10.8067091663  MEMB      51              0.0000000000
      6756        51  POPC      H6S            -6.9071537263      -18.7812287195      -10.4431612115  MEMB      51              0.0000000000
      6757        51  POPC      C27            -8.5718404441      -19.7233308563       -9.4076382359  MEMB      51              0.0000000000
      6758        51  POPC      H7R            -8.3747048701      -20.8005452740       -9.5949041515  MEMB      51              0.0000000000
      6759        51  POPC      H7S            -9.6799720564      -19.7346759516       -9.4866094739  MEMB      51              0.0000000000
      6760        51  POPC      C28            -7.9271031304      -19.2081077655       -8.1063531177  MEMB      51              0.0000000000
      6761        51  POPC      H8R            -6.8540571073      -19.4299359072       -8.2898880236  MEMB      51              0.0000000000
      6762        51  POPC      H8S            -8.3239073312      -19.9148324128       -7.3464793583  MEMB      51              0.0000000000
      6763        51  POPC      C29            -8.2522001290      -17.8306646495       -7.6145352641  MEMB      51              0.0000000000
      6764        51  POPC      H91            -9.3294141603      -17.6080051919       -7.6202459044  MEMB      51              0.0000000000
      6765        51  POPC      C210           -7.4910163431      -16.7642107848       -7.2229200412  MEMB      51              0.0000000000
      6766        51  POPC      H101           -8.0274935313      -15.8594600497       -6.9010221973  MEMB      51              0.0000000000
      6767        51  POPC      C211           -6.0721154637      -16.7146791610       -7.1546951673  MEMB      51              0.0000000000
      6768        51  POPC      H11R           -5.7213279207      -15.6606034800       -7.1685971993  MEMB      51              0.0000000000
      6769        51  POPC      H11S           -5.5518187018      -17.2670674201       -7.9661634406  MEMB      51              0.0000000000
      6770        51  POPC      C212           -5.4877991286      -17.3074948272       -5.8469298478  MEMB      51              0.0000000000
      6771        51  POPC      H12R           -4.3812900274      -17.2612718561       -5.9353726768  MEMB      51              0.0000000000
      6772        51  POPC      H12S           -5.7690299328      -18.3821531768       -5.8284973806  MEMB      51              0.0000000000
      6773        51  POPC      C213           -5.8697948131      -16.6168772016       -4.5103068882  MEMB      51              0.0000000000
      6774        51  POPC      H13R           -5.8520230818      -15.5400621603       -4.7832068476  MEMB      51              0.0000000000
      6775        51  POPC      H13S           -5.0585938884      -16.5463287850       -3.7544652592  MEMB      51              0.0000000000
      6776        51  POPC      C214           -7.2141760397      -17.0006843559       -3.8759910498  MEMB      51              0.0000000000
      6777        51  POPC      H14R           -7.2841848031      -18.1029210277       -3.7555994641  MEMB      51              0.0000000000
      6778        51  POPC      H14S           -7.9310877049      -16.5413317808       -4.5896809787  MEMB      51              0.0000000000
      6779        51  POPC      C215           -7.5500074428      -16.4499966437       -2.4873596750  MEMB      51              0.0000000000
      6780        51  POPC      H15R           -8.5989675190      -16.6685176291       -2.1936725899  MEMB      51              0.0000000000
      6781        51  POPC      H15S           -7.5190748520      -15.3394343835       -2.4834308550  MEMB      51              0.0000000000
      6782        51  POPC      C216           -6.4344525460      -16.9101665909       -1.5313226942  MEMB      51              0.0000000000
      6783        51  POPC      H16R           -5.4819042771      -16.4335534536       -1.8472538186  MEMB      51              0.0000000000
      6784        51  POPC      H16S           -6.2029993699      -17.9925288645       -1.6274571035  MEMB      51              0.0000000000
      6785        51  POPC      C217           -6.7480216373      -16.6144482607        0.0180199744  MEMB      51              0.0000000000
      6786        51  POPC      H17R           -7.7060890228      -17.1117388510        0.2809451048  MEMB      51              0.0000000000
      6787        51  POPC      H17S           -6.8630991735      -15.5095740686       -0.0001821334  MEMB      51              0.0000000000
      6788        51  POPC      C218           -5.7117115197      -16.8848526221        1.1047946543  MEMB      51              0.0000000000
      6789        51  POPC      H18R           -5.5837553794      -17.9661714558        1.3254730634  MEMB      51              0.0000000000
      6790        51  POPC      H18S           -5.8846304619      -16.3380122059        2.0563127886  MEMB      51              0.0000000000
      6791        51  POPC      H18T           -4.8225745399      -16.4209933566        0.6266832601  MEMB      51              0.0000000000
      6792        51  POPC      C33           -12.3277829627      -16.5701632207      -12.5613320333  MEMB      51              0.0000000000
      6793        51  POPC      H3X           -11.3491447683      -17.0542275400      -12.3557348228  MEMB      51              0.0000000000
      6794        51  POPC      H3Y           -12.4162986054      -16.3934376782      -13.6546086001  MEMB      51              0.0000000000
      6795        51  POPC      C34           -13.4734894034      -17.5002106152      -12.1043788192  MEMB      51              0.0000000000
      6796        51  POPC      H4X           -13.1912819938      -18.4332200225      -12.6374580626  MEMB      51              0.0000000000
      6797        51  POPC      H4Y           -14.4290884597      -17.1721417155      -12.5664638147  MEMB      51              0.0000000000
      6798        51  POPC      C35           -13.6214008280      -17.7474284171      -10.5323640717  MEMB      51              0.0000000000
      6799        51  POPC      H5X           -14.6687264521      -18.0527018505      -10.3220349929  MEMB      51              0.0000000000
      6800        51  POPC      H5Y           -13.5005157985      -16.7595684768      -10.0385619371  MEMB      51              0.0000000000
      6801        51  POPC      C36           -12.7680014426      -18.7667115122       -9.8874439344  MEMB      51              0.0000000000
      6802        51  POPC      H6X           -11.7165684275      -18.5144565808      -10.1427417600  MEMB      51              0.0000000000
      6803        51  POPC      H6Y           -12.8762361648      -19.6663886010      -10.5302400115  MEMB      51              0.0000000000
      6804        51  POPC      C37           -12.9107492217      -19.0863662831       -8.3761628784  MEMB      51              0.0000000000
      6805        51  POPC      H7X           -12.1887455393      -19.9134992078       -8.2062136922  MEMB      51              0.0000000000
      6806        51  POPC      H7Y           -13.8928304486      -19.5585632951       -8.1596740838  MEMB      51              0.0000000000
      6807        51  POPC      C38           -12.6070847089      -17.8852113714       -7.5160648710  MEMB      51              0.0000000000
      6808        51  POPC      H8X           -13.4141068197      -17.1307369963       -7.6335584386  MEMB      51              0.0000000000
      6809        51  POPC      H8Y           -11.6884253443      -17.4139175055       -7.9262697710  MEMB      51              0.0000000000
      6810        51  POPC      C39           -12.3143200153      -18.1042392591       -5.9775798225  MEMB      51              0.0000000000
      6811        51  POPC      H9X           -11.3183743271      -18.4903201683       -5.6720400967  MEMB      51              0.0000000000
      6812        51  POPC      H9Y           -13.0134210271      -18.9253821032       -5.7105535466  MEMB      51              0.0000000000
      6813        51  POPC      C310          -12.4716481540      -16.8070079151       -5.1218864802  MEMB      51              0.0000000000
      6814        51  POPC      H10X          -13.5254357170      -16.4646298414       -5.2033109991  MEMB      51              0.0000000000
      6815        51  POPC      H10Y          -11.7774761740      -16.0636767791       -5.5689941772  MEMB      51              0.0000000000
      6816        51  POPC      C311          -12.0917460471      -17.0037700752       -3.6205810850  MEMB      51              0.0000000000
      6817        51  POPC      H11X          -11.0329951015      -17.3317554586       -3.5444703254  MEMB      51              0.0000000000
      6818        51  POPC      H11Y          -12.6713298429      -17.8274295497       -3.1515519565  MEMB      51              0.0000000000
      6819        51  POPC      C312          -12.3419063070      -15.7452823025       -2.8373590979  MEMB      51              0.0000000000
      6820        51  POPC      H12X          -11.9868196504      -15.6815574009       -1.7865623897  MEMB      51              0.0000000000
      6821        51  POPC      H12Y          -13.4151207013      -15.4602344740       -2.8731308560  MEMB      51              0.0000000000
      6822        51  POPC      C313          -11.4542242417      -14.5882329362       -3.4248375949  MEMB      51              0.0000000000
      6823        51  POPC      H13X          -12.1503431937      -14.1033030243       -4.1421817511  MEMB      51              0.0000000000
      6824        51  POPC      H13Y          -10.5392005145      -14.9249777067       -3.9574310528  MEMB      51              0.0000000000
      6825        51  POPC      C314          -10.9835167489      -13.5534474447       -2.4653750414  MEMB      51              0.0000000000
      6826        51  POPC      H14X          -10.0904413290      -13.1162460037       -2.9609484662  MEMB      51              0.0000000000
      6827        51  POPC      H14Y          -10.6081252356      -13.9499724448       -1.4978172252  MEMB      51              0.0000000000
      6828        51  POPC      C315          -12.0058304203      -12.4057483785       -2.2964380686  MEMB      51              0.0000000000
      6829        51  POPC      H15X          -12.9924494314      -12.8762444821       -2.4952781828  MEMB      51              0.0000000000
      6830        51  POPC      H15Y          -11.9016743014      -11.6692482007       -3.1216904402  MEMB      51              0.0000000000
      6831        51  POPC      C316          -12.1476740796      -11.6757266601       -0.9708147336  MEMB      51              0.0000000000
      6832        51  POPC      H16X          -11.2012622442      -11.1083964620       -0.8413468153  MEMB      51              0.0000000000
      6833        51  POPC      H16Y          -12.2101164674      -12.4532746375       -0.1797141754  MEMB      51              0.0000000000
      6834        51  POPC      H16Z          -13.0841328977      -11.0791936039       -0.9319037372  MEMB      51              0.0000000000
      6835        52  POPC      N              13.2979526305      -13.8527771925      -19.1519990469  MEMB      52              0.0000000000
      6836        52  POPC      C12            12.5410152589      -14.6889655235      -18.1848658703  MEMB      52              0.0000000000
      6837        52  POPC      H12A           12.0817984878      -14.1751912682      -17.3532674552  MEMB      52              0.0000000000
      6838        52  POPC      H12B           13.2783178344      -15.3326591534      -17.7283099761  MEMB      52              0.0000000000
      6839        52  POPC      C13            14.2934991381      -12.9818704984      -18.4052452748  MEMB      52              0.0000000000
      6840        52  POPC      H13A           14.5514689708      -13.4458929098      -17.4647482108  MEMB      52              0.0000000000
      6841        52  POPC      H13B           15.1691611479      -12.8072362711      -19.0127967941  MEMB      52              0.0000000000
      6842        52  POPC      H13C           13.8551901386      -12.0458323360      -18.0920070487  MEMB      52              0.0000000000
      6843        52  POPC      C14            14.0925839080      -14.7470315194      -20.0471524601  MEMB      52              0.0000000000
      6844        52  POPC      H14A           14.3326602669      -14.2162201187      -20.9565493436  MEMB      52              0.0000000000
      6845        52  POPC      H14B           14.9731239243      -15.1406334980      -19.5612236017  MEMB      52              0.0000000000
      6846        52  POPC      H14C           13.4439974949      -15.5486863679      -20.3682212715  MEMB      52              0.0000000000
      6847        52  POPC      C15            12.4515764158      -12.9525525210      -19.9547805620  MEMB      52              0.0000000000
      6848        52  POPC      H15A           11.7561892537      -13.5413553922      -20.5345631681  MEMB      52              0.0000000000
      6849        52  POPC      H15B           12.9405661255      -12.3164970503      -20.6777758586  MEMB      52              0.0000000000
      6850        52  POPC      H15C           11.9850549707      -12.2159059185      -19.3175135096  MEMB      52              0.0000000000
      6851        52  POPC      C11            11.4089734590      -15.6760975940      -18.6710906099  MEMB      52              0.0000000000
      6852        52  POPC      H11A           10.5327920334      -15.1458039522      -19.1016899044  MEMB      52              0.0000000000
      6853        52  POPC      H11B           10.9636133927      -16.1274945220      -17.7588317028  MEMB      52              0.0000000000
      6854        52  POPC      P              12.3945245153      -18.0140552708      -18.9328200582  MEMB      52              0.0000000000
      6855        52  POPC      O13            13.3627046970      -18.5572983097      -19.8365901130  MEMB      52              0.0000000000
      6856        52  POPC      O14            11.2797225876      -18.9591989593      -18.6615031434  MEMB      52              0.0000000000
      6857        52  POPC      O12            11.7736666482      -16.6760227264      -19.5984347418  MEMB      52              0.0000000000
      6858        52  POPC      O11            13.1509220378      -17.5726988302      -17.5555181247  MEMB      52              0.0000000000
      6859        52  POPC      C1             14.6516018337      -17.5688762781      -17.4666099518  MEMB      52              0.0000000000
      6860        52  POPC      HA             15.0420788031      -16.8212095639      -18.1896888782  MEMB      52              0.0000000000
      6861        52  POPC      HB             15.1527279801      -18.5135839525      -17.7678095537  MEMB      52              0.0000000000
      6862        52  POPC      C2             15.1436483519      -17.4042935798      -15.9695507028  MEMB      52              0.0000000000
      6863        52  POPC      HS             16.1861627198      -17.7263516846      -15.7603533973  MEMB      52              0.0000000000
      6864        52  POPC      O21            14.2323971780      -18.1458746968      -15.1200757700  MEMB      52              0.0000000000
      6865        52  POPC      C21            14.2581445653      -19.4464745890      -15.1670805962  MEMB      52              0.0000000000
      6866        52  POPC      O22            15.0339154999      -20.1420888615      -15.7512580431  MEMB      52              0.0000000000
      6867        52  POPC      C22            13.0911034934      -20.1668925983      -14.3468600093  MEMB      52              0.0000000000
      6868        52  POPC      H2R            12.7692097519      -20.9293210729      -15.0880806447  MEMB      52              0.0000000000
      6869        52  POPC      H2S            12.3836258473      -19.3732932011      -14.0243747552  MEMB      52              0.0000000000
      6870        52  POPC      C3             15.1670063183      -15.9284373422      -15.5824760497  MEMB      52              0.0000000000
      6871        52  POPC      HX             14.5388286850      -15.3567652364      -16.2986499380  MEMB      52              0.0000000000
      6872        52  POPC      HY             16.2025267849      -15.5311884330      -15.6473715398  MEMB      52              0.0000000000
      6873        52  POPC      O31            14.6360595705      -15.7396971985      -14.2872284152  MEMB      52              0.0000000000
      6874        52  POPC      C31            13.4260308087      -15.2121778157      -14.1794254176  MEMB      52              0.0000000000
      6875        52  POPC      O32            12.7119839866      -14.8423182429      -15.1205870582  MEMB      52              0.0000000000
      6876        52  POPC      C32            13.1663966974      -15.2357642082      -12.6679026823  MEMB      52              0.0000000000
      6877        52  POPC      H2X            14.0865970388      -14.7965619472      -12.2267073272  MEMB      52              0.0000000000
      6878        52  POPC      H2Y            13.1872127220      -16.2868834917      -12.3086869876  MEMB      52              0.0000000000
      6879        52  POPC      C23            13.8504189729      -20.9100718727      -13.2832139205  MEMB      52              0.0000000000
      6880        52  POPC      H3R            14.5830808473      -21.5596363047      -13.8081834965  MEMB      52              0.0000000000
      6881        52  POPC      H3S            13.0984140708      -21.4985797472      -12.7153514452  MEMB      52              0.0000000000
      6882        52  POPC      C24            14.4261420726      -19.9102647497      -12.2252214880  MEMB      52              0.0000000000
      6883        52  POPC      H4R            13.6126333901      -19.2835292110      -11.8012795142  MEMB      52              0.0000000000
      6884        52  POPC      H4S            15.1891477646      -19.2040447208      -12.6168805733  MEMB      52              0.0000000000
      6885        52  POPC      C25            15.2560115196      -20.6109412812      -11.0729971343  MEMB      52              0.0000000000
      6886        52  POPC      H5R            16.1703458919      -20.9856835765      -11.5808178454  MEMB      52              0.0000000000
      6887        52  POPC      H5S            14.5885004973      -21.4562976908      -10.8007438546  MEMB      52              0.0000000000
      6888        52  POPC      C26            15.6880857444      -19.6914791346       -9.9098275911  MEMB      52              0.0000000000
      6889        52  POPC      H6R            15.8246619959      -18.6560878086      -10.2888160728  MEMB      52              0.0000000000
      6890        52  POPC      H6S            16.6979029392      -19.9158611464       -9.5045591062  MEMB      52              0.0000000000
      6891        52  POPC      C27            14.6028381069      -19.7501116963       -8.8238892250  MEMB      52              0.0000000000
      6892        52  POPC      H7R            14.8008114825      -20.6885468003       -8.2631154972  MEMB      52              0.0000000000
      6893        52  POPC      H7S            13.5776681537      -19.8822702274       -9.2311748589  MEMB      52              0.0000000000
      6894        52  POPC      C28            14.8379573306      -18.4514764872       -7.8802446640  MEMB      52              0.0000000000
      6895        52  POPC      H8R            15.9077510892      -18.4850396729       -7.5823584786  MEMB      52              0.0000000000
      6896        52  POPC      H8S            14.1837371850      -18.6407595417       -7.0024695010  MEMB      52              0.0000000000
      6897        52  POPC      C29            14.5520360625      -17.1431756591       -8.5529907910  MEMB      52              0.0000000000
      6898        52  POPC      H91            14.2013631239      -17.2156750771       -9.5930735080  MEMB      52              0.0000000000
      6899        52  POPC      C210           14.7716377646      -15.9255290458       -8.0267938980  MEMB      52              0.0000000000
      6900        52  POPC      H101           14.5848074081      -15.0302796734       -8.6380412666  MEMB      52              0.0000000000
      6901        52  POPC      C211           15.3170649875      -15.7360758038       -6.6153324881  MEMB      52              0.0000000000
      6902        52  POPC      H11R           16.4180439245      -15.6994953521       -6.7596534158  MEMB      52              0.0000000000
      6903        52  POPC      H11S           15.0519449890      -16.5935820493       -5.9605687710  MEMB      52              0.0000000000
      6904        52  POPC      C212           14.7172465425      -14.5418949366       -5.8804747207  MEMB      52              0.0000000000
      6905        52  POPC      H12R           15.0591918076      -13.6845428199       -6.4988126136  MEMB      52              0.0000000000
      6906        52  POPC      H12S           15.2873152943      -14.3882447672       -4.9393400597  MEMB      52              0.0000000000
      6907        52  POPC      C213           13.1790048691      -14.4858540668       -5.7450971885  MEMB      52              0.0000000000
      6908        52  POPC      H13R           12.9996244177      -15.2106695534       -4.9224263842  MEMB      52              0.0000000000
      6909        52  POPC      H13S           12.7143732466      -14.7472987463       -6.7198194787  MEMB      52              0.0000000000
      6910        52  POPC      C214           12.7483419174      -13.0366700392       -5.2582968250  MEMB      52              0.0000000000
      6911        52  POPC      H14R           12.9140822850      -12.2981962808       -6.0716283798  MEMB      52              0.0000000000
      6912        52  POPC      H14S           13.3243974445      -12.7472777995       -4.3534584325  MEMB      52              0.0000000000
      6913        52  POPC      C215           11.2568190648      -12.8943701077       -5.0725022681  MEMB      52              0.0000000000
      6914        52  POPC      H15R           10.7885061354      -12.8367282353       -6.0783263568  MEMB      52              0.0000000000
      6915        52  POPC      H15S           11.0538893749      -11.9073687193       -4.6045612242  MEMB      52              0.0000000000
      6916        52  POPC      C216           10.5632737264      -14.0094360455       -4.1768378569  MEMB      52              0.0000000000
      6917        52  POPC      H16R           11.0419349255      -15.0009896495       -4.3252482455  MEMB      52              0.0000000000
      6918        52  POPC      H16S            9.4989339182      -14.0252157557       -4.4950402784  MEMB      52              0.0000000000
      6919        52  POPC      C217           10.5708428402      -13.4595287076       -2.6810890203  MEMB      52              0.0000000000
      6920        52  POPC      H17R            9.9263913982      -12.5545498022       -2.6851749492  MEMB      52              0.0000000000
      6921        52  POPC      H17S           11.5917948051      -13.1667603820       -2.3551064042  MEMB      52              0.0000000000
      6922        52  POPC      C218           10.1011431246      -14.5473718546       -1.7626394125  MEMB      52              0.0000000000
      6923        52  POPC      H18R            9.0143679191      -14.7001905541       -1.9355211481  MEMB      52              0.0000000000
      6924        52  POPC      H18S           10.3619648775      -14.2842845318       -0.7152245322  MEMB      52              0.0000000000
      6925        52  POPC      H18T           10.5747125335      -15.4861219244       -2.1215291798  MEMB      52              0.0000000000
      6926        52  POPC      C33            11.8271948056      -14.5692129607      -12.2906891544  MEMB      52              0.0000000000
      6927        52  POPC      H3X            11.0334506478      -15.1320398109      -12.8268953331  MEMB      52              0.0000000000
      6928        52  POPC      H3Y            11.6472547187      -13.5031977110      -12.5467244705  MEMB      52              0.0000000000
      6929        52  POPC      C34            11.6577130348      -14.5706431773      -10.7665690035  MEMB      52              0.0000000000
      6930        52  POPC      H4X            10.9430433321      -13.7661512921      -10.4902338337  MEMB      52              0.0000000000
      6931        52  POPC      H4Y            12.5734263483      -14.4186105214      -10.1560973215  MEMB      52              0.0000000000
      6932        52  POPC      C35            11.0457651494      -15.8940400583      -10.2529691410  MEMB      52              0.0000000000
      6933        52  POPC      H5X            11.7118092313      -16.7359633823      -10.5391006978  MEMB      52              0.0000000000
      6934        52  POPC      H5Y            10.0549671693      -15.8723715570      -10.7551343357  MEMB      52              0.0000000000
      6935        52  POPC      C36            10.9706725450      -16.0149228492       -8.6871645773  MEMB      52              0.0000000000
      6936        52  POPC      H6X            10.2732496319      -15.2865285866       -8.2209418129  MEMB      52              0.0000000000
      6937        52  POPC      H6Y            11.9542663483      -15.6877127700       -8.2874173191  MEMB      52              0.0000000000
      6938        52  POPC      C37            10.9086190899      -17.4813719409       -8.1463362422  MEMB      52              0.0000000000
      6939        52  POPC      H7X            11.8094331190      -18.0410417836       -8.4774333225  MEMB      52              0.0000000000
      6940        52  POPC      H7Y            10.0125497505      -17.8915769048       -8.6592821688  MEMB      52              0.0000000000
      6941        52  POPC      C38            10.6267529255      -17.7464037136       -6.5921521148  MEMB      52              0.0000000000
      6942        52  POPC      H8X             9.5275536096      -17.6972742986       -6.4383086234  MEMB      52              0.0000000000
      6943        52  POPC      H8Y            11.2084731945      -16.9944214477       -6.0173085809  MEMB      52              0.0000000000
      6944        52  POPC      C39            11.0160940294      -19.2214850713       -6.3562215464  MEMB      52              0.0000000000
      6945        52  POPC      H9X            12.1189764244      -19.1864640157       -6.4856240441  MEMB      52              0.0000000000
      6946        52  POPC      H9Y            10.6433377784      -19.8639826065       -7.1824003202  MEMB      52              0.0000000000
      6947        52  POPC      C310           10.7689126135      -19.7734631152       -4.9068385881  MEMB      52              0.0000000000
      6948        52  POPC      H10X           10.7532699996      -20.8802571076       -5.0021461645  MEMB      52              0.0000000000
      6949        52  POPC      H10Y            9.8314146405      -19.4690345743       -4.3942550583  MEMB      52              0.0000000000
      6950        52  POPC      C311           12.0053203940      -19.5129512465       -3.8935296720  MEMB      52              0.0000000000
      6951        52  POPC      H11X           12.9083406882      -19.7827239159       -4.4818309558  MEMB      52              0.0000000000
      6952        52  POPC      H11Y           11.9737611329      -20.1773203347       -3.0036200812  MEMB      52              0.0000000000
      6953        52  POPC      C312           12.1312385820      -18.0457657419       -3.5298376093  MEMB      52              0.0000000000
      6954        52  POPC      H12X           11.1967896465      -17.7728826723       -2.9944302734  MEMB      52              0.0000000000
      6955        52  POPC      H12Y           12.2416787733      -17.4043282470       -4.4302160222  MEMB      52              0.0000000000
      6956        52  POPC      C313           13.4116019301      -17.6738782518       -2.6992031495  MEMB      52              0.0000000000
      6957        52  POPC      H13X           13.3091885248      -17.8935303792       -1.6149596104  MEMB      52              0.0000000000
      6958        52  POPC      H13Y           13.5153954956      -16.5763472653       -2.8369474878  MEMB      52              0.0000000000
      6959        52  POPC      C314           14.6748002666      -18.4186724761       -3.1094606543  MEMB      52              0.0000000000
      6960        52  POPC      H14X           14.6642302163      -18.1562591923       -4.1889730749  MEMB      52              0.0000000000
      6961        52  POPC      H14Y           14.5074205487      -19.4997402352       -2.9155589230  MEMB      52              0.0000000000
      6962        52  POPC      C315           15.9651760879      -18.0767573133       -2.3521066197  MEMB      52              0.0000000000
      6963        52  POPC      H15X           16.7525662634      -18.6799427372       -2.8526106853  MEMB      52              0.0000000000
      6964        52  POPC      H15Y           15.8864973817      -18.3742364651       -1.2845681847  MEMB      52              0.0000000000
      6965        52  POPC      C316           16.2240545587      -16.4684898372       -2.3901074437  MEMB      52              0.0000000000
      6966        52  POPC      H16X           16.1713734164      -16.1560084777       -3.4549560515  MEMB      52              0.0000000000
      6967        52  POPC      H16Y           17.2377705753      -16.3288396546       -1.9574439215  MEMB      52              0.0000000000
      6968        52  POPC      H16Z           15.3734830884      -15.9684609531       -1.8794025783  MEMB      52              0.0000000000
      6969        53  POPC      N             -13.6298311160       14.0125820365      -20.4654872140  MEMB      53              0.0000000000
      6970        53  POPC      C12           -14.0959627990       14.9031445416      -19.3496156599  MEMB      53              0.0000000000
      6971        53  POPC      H12A          -13.7105253123       15.8957223747      -19.5302462781  MEMB      53              0.0000000000
      6972        53  POPC      H12B          -13.6766402162       14.5715392531      -18.4112092738  MEMB      53              0.0000000000
      6973        53  POPC      C13           -12.1187613565       14.0266217035      -20.6377280163  MEMB      53              0.0000000000
      6974        53  POPC      H13A          -11.7522588817       15.0362862985      -20.5252418964  MEMB      53              0.0000000000
      6975        53  POPC      H13B          -11.5920027654       13.5464961062      -19.8263065500  MEMB      53              0.0000000000
      6976        53  POPC      H13C          -11.7637826649       13.5888988942      -21.5590254536  MEMB      53              0.0000000000
      6977        53  POPC      C14           -14.1028695364       12.5361496062      -20.4440573769  MEMB      53              0.0000000000
      6978        53  POPC      H14A          -13.5166168868       11.8937063280      -19.8037649284  MEMB      53              0.0000000000
      6979        53  POPC      H14B          -15.1674491144       12.4363128283      -20.2920608372  MEMB      53              0.0000000000
      6980        53  POPC      H14C          -13.8359649370       12.2588618757      -21.4531526985  MEMB      53              0.0000000000
      6981        53  POPC      C15           -14.1533413012       14.5731904596      -21.7638361080  MEMB      53              0.0000000000
      6982        53  POPC      H15A          -15.2081519971       14.7798771818      -21.6586934254  MEMB      53              0.0000000000
      6983        53  POPC      H15B          -14.1466892749       13.8173135883      -22.5352023523  MEMB      53              0.0000000000
      6984        53  POPC      H15C          -13.5827383244       15.3942303222      -22.1721323748  MEMB      53              0.0000000000
      6985        53  POPC      C11           -15.6485441983       15.0656748554      -19.2348078566  MEMB      53              0.0000000000
      6986        53  POPC      H11A          -16.1853700275       15.4096284561      -20.1446622329  MEMB      53              0.0000000000
      6987        53  POPC      H11B          -15.8318820069       15.9293798804      -18.5604771806  MEMB      53              0.0000000000
      6988        53  POPC      P             -16.1564250386       13.3403976619      -17.3920331398  MEMB      53              0.0000000000
      6989        53  POPC      O13           -14.8154592515       13.5758955541      -16.8523927791  MEMB      53              0.0000000000
      6990        53  POPC      O14           -16.8070095805       12.0091749866      -17.3594395714  MEMB      53              0.0000000000
      6991        53  POPC      O12           -16.2678422062       13.8598290157      -18.8718540409  MEMB      53              0.0000000000
      6992        53  POPC      O11           -17.1405386135       14.3267828783      -16.6287482483  MEMB      53              0.0000000000
      6993        53  POPC      C1            -18.4316673344       14.5712121015      -17.2238203719  MEMB      53              0.0000000000
      6994        53  POPC      HA            -18.9461687250       13.6012750267      -17.3936186096  MEMB      53              0.0000000000
      6995        53  POPC      HB            -18.2455859753       15.0977993837      -18.1842372035  MEMB      53              0.0000000000
      6996        53  POPC      C2            -19.3771899950       15.3467061954      -16.1768205167  MEMB      53              0.0000000000
      6997        53  POPC      HS            -20.2042704806       15.8099708779      -16.7561691294  MEMB      53              0.0000000000
      6998        53  POPC      O21           -18.7625850070       16.4177382458      -15.4027595223  MEMB      53              0.0000000000
      6999        53  POPC      C21           -18.2062147806       17.4096631045      -16.1203861529  MEMB      53              0.0000000000
      7000        53  POPC      O22           -18.3106952060       17.5048703914      -17.3133245906  MEMB      53              0.0000000000
      7001        53  POPC      C22           -17.3063910062       18.2719394643      -15.2387213836  MEMB      53              0.0000000000
      7002        53  POPC      H2R           -17.6979975889       18.7504381153      -14.3156806018  MEMB      53              0.0000000000
      7003        53  POPC      H2S           -16.9851765596       19.0840474648      -15.9254692137  MEMB      53              0.0000000000
      7004        53  POPC      C3            -20.0002486712       14.3195847895      -15.2179211914  MEMB      53              0.0000000000
      7005        53  POPC      HX            -20.4781577712       13.5995093933      -15.9160724591  MEMB      53              0.0000000000
      7006        53  POPC      HY            -20.8916749981       14.8110172002      -14.7727527096  MEMB      53              0.0000000000
      7007        53  POPC      O31           -19.0186123871       13.8592481136      -14.3198780120  MEMB      53              0.0000000000
      7008        53  POPC      C31           -18.9914858660       12.5611771036      -14.0718179219  MEMB      53              0.0000000000
      7009        53  POPC      O32           -19.7935965778       11.7293647419      -14.4992772245  MEMB      53              0.0000000000
      7010        53  POPC      C32           -18.0723549786       12.2886745434      -12.8505398174  MEMB      53              0.0000000000
      7011        53  POPC      H2X           -16.9965390091       12.4164842818      -13.0967223875  MEMB      53              0.0000000000
      7012        53  POPC      H2Y           -18.3672137019       11.2615075542      -12.5467184147  MEMB      53              0.0000000000
      7013        53  POPC      C23           -15.9677092378       17.5463813944      -14.8515829770  MEMB      53              0.0000000000
      7014        53  POPC      H3R           -15.2292042461       18.3607428131      -15.0120414860  MEMB      53              0.0000000000
      7015        53  POPC      H3S           -15.8474843933       16.6968455868      -15.5573846721  MEMB      53              0.0000000000
      7016        53  POPC      C24           -15.9329474464       17.0425564592      -13.4839978798  MEMB      53              0.0000000000
      7017        53  POPC      H4R           -16.7854311660       16.3480304452      -13.3251706846  MEMB      53              0.0000000000
      7018        53  POPC      H4S           -16.1165804682       17.8397260654      -12.7322528782  MEMB      53              0.0000000000
      7019        53  POPC      C25           -14.6885821439       16.1732094756      -13.1247608347  MEMB      53              0.0000000000
      7020        53  POPC      H5R           -14.5758794098       16.3627100804      -12.0358586586  MEMB      53              0.0000000000
      7021        53  POPC      H5S           -13.8225825572       16.5897915613      -13.6822778856  MEMB      53              0.0000000000
      7022        53  POPC      C26           -14.7927840287       14.6555059465      -13.3085704317  MEMB      53              0.0000000000
      7023        53  POPC      H6R           -14.5062785226       14.3664621061      -14.3423446578  MEMB      53              0.0000000000
      7024        53  POPC      H6S           -15.8065310093       14.2415934220      -13.1206487640  MEMB      53              0.0000000000
      7025        53  POPC      C27           -13.8167318593       14.0073580920      -12.2780687031  MEMB      53              0.0000000000
      7026        53  POPC      H7R           -14.1060222798       14.3278893123      -11.2544028699  MEMB      53              0.0000000000
      7027        53  POPC      H7S           -12.7490082544       14.2464906900      -12.4706896529  MEMB      53              0.0000000000
      7028        53  POPC      C28           -13.8693279962       12.4411558467      -12.2559913223  MEMB      53              0.0000000000
      7029        53  POPC      H8R           -13.5101139480       11.8761126339      -13.1425650594  MEMB      53              0.0000000000
      7030        53  POPC      H8S           -14.9420244587       12.1894775484      -12.1135084948  MEMB      53              0.0000000000
      7031        53  POPC      C29           -13.1371022370       11.7868002396      -11.1041461388  MEMB      53              0.0000000000
      7032        53  POPC      H91           -12.0634484746       11.6260500720      -11.2814220852  MEMB      53              0.0000000000
      7033        53  POPC      C210          -13.6628906947       11.4676031153       -9.9660647789  MEMB      53              0.0000000000
      7034        53  POPC      H101          -12.9775236617       11.1156569954       -9.1809493395  MEMB      53              0.0000000000
      7035        53  POPC      C211          -15.0731012632       11.6864288195       -9.4672556539  MEMB      53              0.0000000000
      7036        53  POPC      H11R          -15.8700422059       11.3869647006      -10.1810672454  MEMB      53              0.0000000000
      7037        53  POPC      H11S          -15.3262023955       12.7606664690       -9.5948257429  MEMB      53              0.0000000000
      7038        53  POPC      C212          -15.2973894336       11.2652856465       -8.0092447400  MEMB      53              0.0000000000
      7039        53  POPC      H12R          -14.4377609922       11.3322416152       -7.3086180888  MEMB      53              0.0000000000
      7040        53  POPC      H12S          -15.4590111935       10.1696332177       -8.0972507845  MEMB      53              0.0000000000
      7041        53  POPC      C213          -16.5322024282       11.9068532648       -7.3511582328  MEMB      53              0.0000000000
      7042        53  POPC      H13R          -17.4344117252       11.3821375167       -7.7319640914  MEMB      53              0.0000000000
      7043        53  POPC      H13S          -16.5516549783       13.0044094434       -7.5223686985  MEMB      53              0.0000000000
      7044        53  POPC      C214          -16.5784324571       11.6252630935       -5.8316498024  MEMB      53              0.0000000000
      7045        53  POPC      H14R          -15.6773273402       12.0588776812       -5.3475956785  MEMB      53              0.0000000000
      7046        53  POPC      H14S          -16.5236475352       10.5183552151       -5.7537122338  MEMB      53              0.0000000000
      7047        53  POPC      C215          -17.8608668287       12.0248732823       -5.1962871838  MEMB      53              0.0000000000
      7048        53  POPC      H15R          -18.7256045060       11.4663054811       -5.6140809612  MEMB      53              0.0000000000
      7049        53  POPC      H15S          -18.0503673304       13.1051379030       -5.3735976108  MEMB      53              0.0000000000
      7050        53  POPC      C216          -18.0034464002       11.7769619193       -3.6822399647  MEMB      53              0.0000000000
      7051        53  POPC      H16R          -18.9442252011       12.2238467779       -3.2955228831  MEMB      53              0.0000000000
      7052        53  POPC      H16S          -17.2205931478       12.4283617096       -3.2382357305  MEMB      53              0.0000000000
      7053        53  POPC      C217          -17.8086635384       10.3896338252       -3.1479538387  MEMB      53              0.0000000000
      7054        53  POPC      H17R          -16.8883463484        9.8738694246       -3.4962707778  MEMB      53              0.0000000000
      7055        53  POPC      H17S          -18.5475984415        9.6163741341       -3.4485629440  MEMB      53              0.0000000000
      7056        53  POPC      C218          -17.8507867083       10.3753885567       -1.6331107224  MEMB      53              0.0000000000
      7057        53  POPC      H18R          -17.6571405440        9.3076244041       -1.3949881343  MEMB      53              0.0000000000
      7058        53  POPC      H18S          -18.8069489314       10.7283893644       -1.1909950256  MEMB      53              0.0000000000
      7059        53  POPC      H18T          -17.0454591412       11.0098132480       -1.2050047924  MEMB      53              0.0000000000
      7060        53  POPC      C33           -18.2860544530       13.3369224888      -11.6856606735  MEMB      53              0.0000000000
      7061        53  POPC      H3X           -18.1193107253       14.3472918096      -12.1165566475  MEMB      53              0.0000000000
      7062        53  POPC      H3Y           -17.4206975164       13.0959104328      -11.0319086121  MEMB      53              0.0000000000
      7063        53  POPC      C34           -19.6253281276       13.1756692438      -10.9297686892  MEMB      53              0.0000000000
      7064        53  POPC      H4X           -19.8187298037       12.1230100080      -10.6317338276  MEMB      53              0.0000000000
      7065        53  POPC      H4Y           -20.3834689286       13.5724150118      -11.6383850026  MEMB      53              0.0000000000
      7066        53  POPC      C35           -19.6299594776       13.9650241283       -9.5625794673  MEMB      53              0.0000000000
      7067        53  POPC      H5X           -18.7736224011       13.5036024247       -9.0258325622  MEMB      53              0.0000000000
      7068        53  POPC      H5Y           -20.5895948698       13.8646687118       -9.0118080022  MEMB      53              0.0000000000
      7069        53  POPC      C36           -19.2939666534       15.4770570908       -9.6923709726  MEMB      53              0.0000000000
      7070        53  POPC      H6X           -19.9344181197       16.0062229846      -10.4300197937  MEMB      53              0.0000000000
      7071        53  POPC      H6Y           -18.3068061995       15.7178282015      -10.1416643555  MEMB      53              0.0000000000
      7072        53  POPC      C37           -19.4202626768       16.2264537525       -8.3290574657  MEMB      53              0.0000000000
      7073        53  POPC      H7X           -20.4688277663       16.1469262496       -7.9705777794  MEMB      53              0.0000000000
      7074        53  POPC      H7Y           -19.2427710537       17.2901969353       -8.5960193167  MEMB      53              0.0000000000
      7075        53  POPC      C38           -18.3984797326       15.8149910638       -7.1170168859  MEMB      53              0.0000000000
      7076        53  POPC      H8X           -18.6159459509       14.7537837754       -6.8703019457  MEMB      53              0.0000000000
      7077        53  POPC      H8Y           -18.4661654355       16.5484858469       -6.2853165582  MEMB      53              0.0000000000
      7078        53  POPC      C39           -16.9074610485       15.8619510854       -7.5354545270  MEMB      53              0.0000000000
      7079        53  POPC      H9X           -16.6609480930       16.8888528264       -7.8804540459  MEMB      53              0.0000000000
      7080        53  POPC      H9Y           -16.7170690697       15.2202014417       -8.4221496795  MEMB      53              0.0000000000
      7081        53  POPC      C310          -15.9395123508       15.4599168664       -6.3213984092  MEMB      53              0.0000000000
      7082        53  POPC      H10X          -16.0786049954       14.3628932819       -6.2140956954  MEMB      53              0.0000000000
      7083        53  POPC      H10Y          -16.3175204656       15.9918094102       -5.4222207171  MEMB      53              0.0000000000
      7084        53  POPC      C311          -14.5124392604       15.8490224925       -6.5744482004  MEMB      53              0.0000000000
      7085        53  POPC      H11X          -14.4108541939       16.9542170337       -6.5239788339  MEMB      53              0.0000000000
      7086        53  POPC      H11Y          -14.1075851456       15.3271946512       -7.4678183000  MEMB      53              0.0000000000
      7087        53  POPC      C312          -13.6282014158       15.4381050319       -5.3563362686  MEMB      53              0.0000000000
      7088        53  POPC      H12X          -12.6445651214       15.7552018628       -5.7640500779  MEMB      53              0.0000000000
      7089        53  POPC      H12Y          -13.8204632079       14.3641053451       -5.1468580203  MEMB      53              0.0000000000
      7090        53  POPC      C313          -13.9432632419       16.2204987737       -4.1044301986  MEMB      53              0.0000000000
      7091        53  POPC      H13X          -15.0256625928       16.3824637637       -3.9133806524  MEMB      53              0.0000000000
      7092        53  POPC      H13Y          -13.5885154377       17.2731707703       -4.1233081493  MEMB      53              0.0000000000
      7093        53  POPC      C314          -13.4679920947       15.5515962244       -2.8688685244  MEMB      53              0.0000000000
      7094        53  POPC      H14X          -12.3937907794       15.3333065654       -3.0498718810  MEMB      53              0.0000000000
      7095        53  POPC      H14Y          -13.9550701030       14.5667743109       -2.7039391060  MEMB      53              0.0000000000
      7096        53  POPC      C315          -13.5972807166       16.3567002258       -1.5470368709  MEMB      53              0.0000000000
      7097        53  POPC      H15X          -13.6349104026       17.4345746629       -1.8136678569  MEMB      53              0.0000000000
      7098        53  POPC      H15Y          -12.6911257580       16.2904709417       -0.9076488792  MEMB      53              0.0000000000
      7099        53  POPC      C316          -14.8519854998       15.9179653838       -0.7630419915  MEMB      53              0.0000000000
      7100        53  POPC      H16X          -14.5341224746       15.1346800459       -0.0421058810  MEMB      53              0.0000000000
      7101        53  POPC      H16Y          -15.8001814602       15.6649674477       -1.2838464646  MEMB      53              0.0000000000
      7102        53  POPC      H16Z          -15.2297398816       16.7438038940       -0.1230313786  MEMB      53              0.0000000000
      7103        54  POPC      N             -16.7914651801      -10.6374915204      -20.9296884863  MEMB      54              0.0000000000
      7104        54  POPC      C12           -16.5392262256      -11.7417192872      -19.8731100641  MEMB      54              0.0000000000
      7105        54  POPC      H12A          -15.4858754898      -11.7637093156      -19.6356888497  MEMB      54              0.0000000000
      7106        54  POPC      H12B          -16.7325026559      -12.7066006673      -20.3181362451  MEMB      54              0.0000000000
      7107        54  POPC      C13           -18.2565019031      -10.5764757629      -21.2690169926  MEMB      54              0.0000000000
      7108        54  POPC      H13A          -18.4662585341       -9.8676029269      -22.0563550286  MEMB      54              0.0000000000
      7109        54  POPC      H13B          -18.7063144591      -11.5192697828      -21.5432579843  MEMB      54              0.0000000000
      7110        54  POPC      H13C          -18.7334906880      -10.2940965633      -20.3421169040  MEMB      54              0.0000000000
      7111        54  POPC      C14           -16.2289130151       -9.2897029044      -20.4001572545  MEMB      54              0.0000000000
      7112        54  POPC      H14A          -16.7892604802       -8.9651335513      -19.5358278112  MEMB      54              0.0000000000
      7113        54  POPC      H14B          -15.2116281551       -9.4602771720      -20.0801015097  MEMB      54              0.0000000000
      7114        54  POPC      H14C          -16.4095771266       -8.6597620204      -21.2586063066  MEMB      54              0.0000000000
      7115        54  POPC      C15           -16.1007247211      -11.1027818729      -22.1845091119  MEMB      54              0.0000000000
      7116        54  POPC      H15A          -16.7311977047      -11.8445531615      -22.6521406677  MEMB      54              0.0000000000
      7117        54  POPC      H15B          -15.1730914677      -11.5815438717      -21.9075914906  MEMB      54              0.0000000000
      7118        54  POPC      H15C          -15.8759018017      -10.2113061691      -22.7511887752  MEMB      54              0.0000000000
      7119        54  POPC      C11           -17.2051678216      -11.7004146362      -18.4239323399  MEMB      54              0.0000000000
      7120        54  POPC      H11A          -16.6207299399      -11.0519321910      -17.7367468838  MEMB      54              0.0000000000
      7121        54  POPC      H11B          -17.1330869544      -12.7155763359      -17.9783180061  MEMB      54              0.0000000000
      7122        54  POPC      P             -19.2991683604      -10.5599042932      -17.1860943488  MEMB      54              0.0000000000
      7123        54  POPC      O13           -20.4337546124      -11.4581793396      -16.7888291377  MEMB      54              0.0000000000
      7124        54  POPC      O14           -19.5116679231       -9.1777656866      -17.5344432090  MEMB      54              0.0000000000
      7125        54  POPC      O12           -18.5833388907      -11.2354800200      -18.4294075214  MEMB      54              0.0000000000
      7126        54  POPC      O11           -18.2313600458      -10.5238991714      -15.9808115360  MEMB      54              0.0000000000
      7127        54  POPC      C1            -17.5338378207       -9.2772054543      -15.8431427087  MEMB      54              0.0000000000
      7128        54  POPC      HA            -18.0135632214       -8.6403956950      -15.0694128893  MEMB      54              0.0000000000
      7129        54  POPC      HB            -17.3688777496       -8.8008460787      -16.8331886919  MEMB      54              0.0000000000
      7130        54  POPC      C2            -16.1520548977       -9.6611003995      -15.3503937179  MEMB      54              0.0000000000
      7131        54  POPC      HS            -15.7617820157      -10.4284491989      -16.0526642031  MEMB      54              0.0000000000
      7132        54  POPC      O21           -16.2886319916      -10.1866976986      -13.9634665878  MEMB      54              0.0000000000
      7133        54  POPC      C21           -16.3549361880      -11.4932948987      -13.7969740221  MEMB      54              0.0000000000
      7134        54  POPC      O22           -16.2526449884      -12.3534597823      -14.6335634735  MEMB      54              0.0000000000
      7135        54  POPC      C22           -16.7179648537      -11.8108644713      -12.3838155466  MEMB      54              0.0000000000
      7136        54  POPC      H2R           -17.7961474940      -12.0584042859      -12.4866132773  MEMB      54              0.0000000000
      7137        54  POPC      H2S           -16.6158549256      -10.8452868191      -11.8438578446  MEMB      54              0.0000000000
      7138        54  POPC      C3            -15.2464762247       -8.4333677154      -15.3186462786  MEMB      54              0.0000000000
      7139        54  POPC      HX            -15.1915405523       -8.0939426289      -16.3750996551  MEMB      54              0.0000000000
      7140        54  POPC      HY            -14.1965475156       -8.6467581932      -15.0246469901  MEMB      54              0.0000000000
      7141        54  POPC      O31           -15.7274562336       -7.3234323923      -14.5535706238  MEMB      54              0.0000000000
      7142        54  POPC      C31           -15.3860737978       -7.2659883367      -13.2169289481  MEMB      54              0.0000000000
      7143        54  POPC      O32           -14.4600573083       -7.8773802137      -12.7103979905  MEMB      54              0.0000000000
      7144        54  POPC      C32           -16.4165737629       -6.4513088534      -12.4340308637  MEMB      54              0.0000000000
      7145        54  POPC      H2X           -16.3786669201       -5.3943808504      -12.7743056441  MEMB      54              0.0000000000
      7146        54  POPC      H2Y           -15.9922367981       -6.3618663756      -11.4111627570  MEMB      54              0.0000000000
      7147        54  POPC      C23           -15.9894781164      -12.9755930644      -11.6658974596  MEMB      54              0.0000000000
      7148        54  POPC      H3R           -16.2185518410      -13.9759369116      -12.0915237432  MEMB      54              0.0000000000
      7149        54  POPC      H3S           -16.4573323229      -13.1377376406      -10.6713409380  MEMB      54              0.0000000000
      7150        54  POPC      C24           -14.4226871823      -12.7688861298      -11.4968389532  MEMB      54              0.0000000000
      7151        54  POPC      H4R           -13.9879711391      -12.7632661355      -12.5192437757  MEMB      54              0.0000000000
      7152        54  POPC      H4S           -14.0051686302      -13.6493992091      -10.9632702396  MEMB      54              0.0000000000
      7153        54  POPC      C25           -13.9496755586      -11.5550636462      -10.6979827797  MEMB      54              0.0000000000
      7154        54  POPC      H5R           -14.1351692540      -10.6364141315      -11.2946366894  MEMB      54              0.0000000000
      7155        54  POPC      H5S           -12.8413399888      -11.6309993060      -10.6858551274  MEMB      54              0.0000000000
      7156        54  POPC      C26           -14.5866390636      -11.4861876587       -9.3505825683  MEMB      54              0.0000000000
      7157        54  POPC      H6R           -14.6885656893      -12.5044824874       -8.9181389821  MEMB      54              0.0000000000
      7158        54  POPC      H6S           -15.6519674796      -11.1711907892       -9.3637551627  MEMB      54              0.0000000000
      7159        54  POPC      C27           -13.8827166969      -10.7226448851       -8.2569611043  MEMB      54              0.0000000000
      7160        54  POPC      H7R           -13.3851426754       -9.8115146787       -8.6526669148  MEMB      54              0.0000000000
      7161        54  POPC      H7S           -13.1905119611      -11.4237887479       -7.7435700029  MEMB      54              0.0000000000
      7162        54  POPC      C28           -14.8345921083      -10.1590897671       -7.1757199902  MEMB      54              0.0000000000
      7163        54  POPC      H8R           -14.1739764333       -9.6961417931       -6.4117913777  MEMB      54              0.0000000000
      7164        54  POPC      H8S           -15.3879039267      -10.9971959802       -6.7005937960  MEMB      54              0.0000000000
      7165        54  POPC      C29           -15.7774517366       -9.0410427644       -7.5918069349  MEMB      54              0.0000000000
      7166        54  POPC      H91           -16.2547638662       -9.2485702062       -8.5608818882  MEMB      54              0.0000000000
      7167        54  POPC      C210          -16.1953769763       -7.9275760937       -6.9896013386  MEMB      54              0.0000000000
      7168        54  POPC      H101          -17.0457839192       -7.3162470511       -7.3258821287  MEMB      54              0.0000000000
      7169        54  POPC      C211          -15.7700599004       -7.5048161937       -5.6130742406  MEMB      54              0.0000000000
      7170        54  POPC      H11R          -16.3715076770       -6.6288673550       -5.2885824581  MEMB      54              0.0000000000
      7171        54  POPC      H11S          -14.6664948888       -7.3765028484       -5.6140719889  MEMB      54              0.0000000000
      7172        54  POPC      C212          -16.0598180458       -8.5883467538       -4.5910264562  MEMB      54              0.0000000000
      7173        54  POPC      H12R          -15.5067891016       -9.4912385923       -4.9275773941  MEMB      54              0.0000000000
      7174        54  POPC      H12S          -17.1502520973       -8.7925400429       -4.5311963800  MEMB      54              0.0000000000
      7175        54  POPC      C213          -15.6110492171       -8.2144589089       -3.1641510478  MEMB      54              0.0000000000
      7176        54  POPC      H13R          -14.5003539712       -8.2401406990       -3.1683308352  MEMB      54              0.0000000000
      7177        54  POPC      H13S          -15.7829925225       -9.0464513946       -2.4482279355  MEMB      54              0.0000000000
      7178        54  POPC      C214          -15.9537606037       -6.8286787513       -2.5656076462  MEMB      54              0.0000000000
      7179        54  POPC      H14R          -16.9815592901       -6.5887598516       -2.9125797181  MEMB      54              0.0000000000
      7180        54  POPC      H14S          -15.3534242487       -6.0086343612       -3.0144327407  MEMB      54              0.0000000000
      7181        54  POPC      C215          -15.6768432585       -6.7374679090       -1.0772576782  MEMB      54              0.0000000000
      7182        54  POPC      H15R          -14.6086563856       -6.9273952634       -0.8380387012  MEMB      54              0.0000000000
      7183        54  POPC      H15S          -16.3516556799       -7.4480705768       -0.5538143552  MEMB      54              0.0000000000
      7184        54  POPC      C216          -15.8692256217       -5.3329471416       -0.4928697848  MEMB      54              0.0000000000
      7185        54  POPC      H16R          -16.8868525898       -4.9970432464       -0.7859994371  MEMB      54              0.0000000000
      7186        54  POPC      H16S          -15.0853908504       -4.6489376359       -0.8828115221  MEMB      54              0.0000000000
      7187        54  POPC      C217          -15.8194200935       -5.3061964539        0.9867495664  MEMB      54              0.0000000000
      7188        54  POPC      H17R          -14.8841356330       -5.7341990301        1.4067234531  MEMB      54              0.0000000000
      7189        54  POPC      H17S          -16.7154895010       -5.8403333257        1.3689522949  MEMB      54              0.0000000000
      7190        54  POPC      C218          -15.9499551538       -3.8534006480        1.4916936644  MEMB      54              0.0000000000
      7191        54  POPC      H18R          -16.9582749741       -3.4859499915        1.2043065234  MEMB      54              0.0000000000
      7192        54  POPC      H18S          -15.1075492848       -3.2500583134        1.0908813370  MEMB      54              0.0000000000
      7193        54  POPC      H18T          -15.9149385770       -3.9796910072        2.5949378160  MEMB      54              0.0000000000
      7194        54  POPC      C33           -17.8158599006       -6.8894602126      -12.6608327419  MEMB      54              0.0000000000
      7195        54  POPC      H3X           -18.0498541029       -7.1532047158      -13.7144013323  MEMB      54              0.0000000000
      7196        54  POPC      H3Y           -18.4571746209       -5.9971650936      -12.4969859130  MEMB      54              0.0000000000
      7197        54  POPC      C34           -18.1727224908       -8.0685391915      -11.7539183993  MEMB      54              0.0000000000
      7198        54  POPC      H4X           -17.7264683547       -7.9397522759      -10.7446649308  MEMB      54              0.0000000000
      7199        54  POPC      H4Y           -17.7105834400       -8.9665428778      -12.2168851805  MEMB      54              0.0000000000
      7200        54  POPC      C35           -19.7082579514       -8.3239085735      -11.5513627132  MEMB      54              0.0000000000
      7201        54  POPC      H5X           -20.1011381236       -8.5124489257      -12.5733306232  MEMB      54              0.0000000000
      7202        54  POPC      H5Y           -20.1587905124       -7.3401605200      -11.2992093648  MEMB      54              0.0000000000
      7203        54  POPC      C36           -20.0797329920       -9.3648266971      -10.4522903763  MEMB      54              0.0000000000
      7204        54  POPC      H6X           -21.1714216013       -9.5590090692      -10.5217908562  MEMB      54              0.0000000000
      7205        54  POPC      H6Y           -20.1230481430       -8.7258018920       -9.5444952928  MEMB      54              0.0000000000
      7206        54  POPC      C37           -19.1059926982      -10.6682642041      -10.2927816239  MEMB      54              0.0000000000
      7207        54  POPC      H7X           -18.0716729095      -10.2972203107      -10.1289843890  MEMB      54              0.0000000000
      7208        54  POPC      H7Y           -19.2019501949      -11.2302131686      -11.2463683541  MEMB      54              0.0000000000
      7209        54  POPC      C38           -19.4109591522      -11.4934444015       -9.0855599212  MEMB      54              0.0000000000
      7210        54  POPC      H8X           -18.7785499494      -12.4015771274       -9.1839206792  MEMB      54              0.0000000000
      7211        54  POPC      H8Y           -20.4343330913      -11.9200638697       -9.0146892942  MEMB      54              0.0000000000
      7212        54  POPC      C39           -19.2081102092      -10.8215103249       -7.6888832108  MEMB      54              0.0000000000
      7213        54  POPC      H9X           -20.0400593546      -10.0927753364       -7.5833991744  MEMB      54              0.0000000000
      7214        54  POPC      H9Y           -18.2473750047      -10.2660106670       -7.7411245758  MEMB      54              0.0000000000
      7215        54  POPC      C310          -19.1727698930      -11.8779103511       -6.5347957223  MEMB      54              0.0000000000
      7216        54  POPC      H10X          -18.2214964497      -12.4014813136       -6.7698989066  MEMB      54              0.0000000000
      7217        54  POPC      H10Y          -20.0369804237      -12.5728005127       -6.6025368412  MEMB      54              0.0000000000
      7218        54  POPC      C311          -19.1175098786      -11.3779691531       -5.0845372653  MEMB      54              0.0000000000
      7219        54  POPC      H11X          -19.9936279901      -10.7454747744       -4.8262949627  MEMB      54              0.0000000000
      7220        54  POPC      H11Y          -18.1732755733      -10.7978988785       -5.0054119708  MEMB      54              0.0000000000
      7221        54  POPC      C312          -19.1200963912      -12.5693144584       -4.0593746702  MEMB      54              0.0000000000
      7222        54  POPC      H12X          -18.3087035938      -13.3022903728       -4.2561206808  MEMB      54              0.0000000000
      7223        54  POPC      H12Y          -20.0679958993      -13.1266241455       -4.2181638868  MEMB      54              0.0000000000
      7224        54  POPC      C313          -19.0182094430      -11.9605382060       -2.6346025378  MEMB      54              0.0000000000
      7225        54  POPC      H13X          -18.1371652036      -11.2837308637       -2.6384059927  MEMB      54              0.0000000000
      7226        54  POPC      H13Y          -18.8375202135      -12.7291752397       -1.8530211597  MEMB      54              0.0000000000
      7227        54  POPC      C314          -20.3228486878      -11.3676141717       -2.0120667866  MEMB      54              0.0000000000
      7228        54  POPC      H14X          -21.0214308983      -12.2148011841       -1.8430150428  MEMB      54              0.0000000000
      7229        54  POPC      H14Y          -20.7940542276      -10.7139763144       -2.7769488730  MEMB      54              0.0000000000
      7230        54  POPC      C315          -20.1513645486      -10.6725895066       -0.6249157009  MEMB      54              0.0000000000
      7231        54  POPC      H15X          -19.7190248688      -11.4528968958        0.0372947604  MEMB      54              0.0000000000
      7232        54  POPC      H15Y          -21.1961866518      -10.4259730940       -0.3388243941  MEMB      54              0.0000000000
      7233        54  POPC      C316          -19.1726286270       -9.4785940137       -0.6748893849  MEMB      54              0.0000000000
      7234        54  POPC      H16X          -19.5710728493       -8.6110394477       -1.2431445221  MEMB      54              0.0000000000
      7235        54  POPC      H16Y          -18.1570259658       -9.7748396217       -1.0141688347  MEMB      54              0.0000000000
      7236        54  POPC      H16Z          -19.0678816459       -9.0676133560        0.3519712092  MEMB      54              0.0000000000
      7237        55  POPC      N              19.0105474395       12.3891513705      -18.0022882767  MEMB      55              0.0000000000
      7238        55  POPC      C12            17.6837879003       11.8161805687      -18.5198971788  MEMB      55              0.0000000000
      7239        55  POPC      H12A           17.0193688190       12.6662202238      -18.4711144350  MEMB      55              0.0000000000
      7240        55  POPC      H12B           17.2994752907       11.0909118402      -17.8179790078  MEMB      55              0.0000000000
      7241        55  POPC      C13            19.3711998224       13.6076191731      -18.8585655559  MEMB      55              0.0000000000
      7242        55  POPC      H13A           20.1538672158       14.1872909100      -18.3918616372  MEMB      55              0.0000000000
      7243        55  POPC      H13B           19.6283013750       13.3587565070      -19.8775681021  MEMB      55              0.0000000000
      7244        55  POPC      H13C           18.5271096496       14.2810067857      -18.8800369776  MEMB      55              0.0000000000
      7245        55  POPC      C14            18.9425792913       12.6663063539      -16.5385815727  MEMB      55              0.0000000000
      7246        55  POPC      H14A           18.2952988091       13.4960152559      -16.2956594167  MEMB      55              0.0000000000
      7247        55  POPC      H14B           18.6617015232       11.7644755700      -16.0149320676  MEMB      55              0.0000000000
      7248        55  POPC      H14C           19.8967522991       12.9832319434      -16.1442313897  MEMB      55              0.0000000000
      7249        55  POPC      C15            20.0959903098       11.3281348530      -18.2183169163  MEMB      55              0.0000000000
      7250        55  POPC      H15A           19.9084766618       10.3237431034      -17.8684083456  MEMB      55              0.0000000000
      7251        55  POPC      H15B           21.0576445973       11.6897353732      -17.8853515257  MEMB      55              0.0000000000
      7252        55  POPC      H15C           20.2666480727       11.3276320172      -19.2847481622  MEMB      55              0.0000000000
      7253        55  POPC      C11            17.6659408114       11.2876016609      -20.0202578474  MEMB      55              0.0000000000
      7254        55  POPC      H11A           18.0592470179       12.0785490420      -20.6940778551  MEMB      55              0.0000000000
      7255        55  POPC      H11B           16.6127301165       11.0048900584      -20.2327250374  MEMB      55              0.0000000000
      7256        55  POPC      P              18.0774076881        8.7199465325      -19.8185769936  MEMB      55              0.0000000000
      7257        55  POPC      O13            19.2041865389        7.7648939837      -19.7234932200  MEMB      55              0.0000000000
      7258        55  POPC      O14            16.9978925685        8.2468003908      -20.6938149429  MEMB      55              0.0000000000
      7259        55  POPC      O12            18.5015687175       10.1567437688      -20.2571401578  MEMB      55              0.0000000000
      7260        55  POPC      O11            17.5890108119        8.8889076391      -18.3490673080  MEMB      55              0.0000000000
      7261        55  POPC      C1             17.2468001314        7.7569978295      -17.5529900506  MEMB      55              0.0000000000
      7262        55  POPC      HA             17.8368635868        6.8560201812      -17.8257272916  MEMB      55              0.0000000000
      7263        55  POPC      HB             16.2032546473        7.5587143152      -17.8785930381  MEMB      55              0.0000000000
      7264        55  POPC      C2             17.2680808005        8.1809493014      -16.1265101458  MEMB      55              0.0000000000
      7265        55  POPC      HS             16.7722750931        7.3331668715      -15.6071233275  MEMB      55              0.0000000000
      7266        55  POPC      O21            16.6043105608        9.4468201208      -15.9563427078  MEMB      55              0.0000000000
      7267        55  POPC      C21            15.2662814433        9.4711779969      -15.8297882536  MEMB      55              0.0000000000
      7268        55  POPC      O22            14.5346809692        8.5417033746      -15.6353631925  MEMB      55              0.0000000000
      7269        55  POPC      C22            14.7615452940       10.9233626132      -15.9226086405  MEMB      55              0.0000000000
      7270        55  POPC      H2R            13.6576508146       10.7981363334      -15.9150905574  MEMB      55              0.0000000000
      7271        55  POPC      H2S            14.9658105372       11.3438148034      -16.9304858859  MEMB      55              0.0000000000
      7272        55  POPC      C3             18.7275303211        8.2800021352      -15.6208861454  MEMB      55              0.0000000000
      7273        55  POPC      HX             19.2435419418        9.1963172289      -15.9792432672  MEMB      55              0.0000000000
      7274        55  POPC      HY             19.3056914638        7.4647111370      -16.1060164394  MEMB      55              0.0000000000
      7275        55  POPC      O31            18.6888645820        8.1180244238      -14.1891486137  MEMB      55              0.0000000000
      7276        55  POPC      C31            18.4828531941        9.3378527689      -13.5182071297  MEMB      55              0.0000000000
      7277        55  POPC      O32            18.5871402503       10.4105355563      -14.0631890019  MEMB      55              0.0000000000
      7278        55  POPC      C32            18.1980904238        9.1287255046      -12.0021754450  MEMB      55              0.0000000000
      7279        55  POPC      H2X            17.4379749307        8.3276313317      -11.8805459009  MEMB      55              0.0000000000
      7280        55  POPC      H2Y            17.8166411422       10.1024994617      -11.6272327315  MEMB      55              0.0000000000
      7281        55  POPC      C23            15.2296548469       11.8551596718      -14.7902560388  MEMB      55              0.0000000000
      7282        55  POPC      H3R            15.3400805659       12.8900246234      -15.1790770709  MEMB      55              0.0000000000
      7283        55  POPC      H3S            16.2313261635       11.4386260177      -14.5505163145  MEMB      55              0.0000000000
      7284        55  POPC      C24            14.2933541659       11.8608885482      -13.6398716231  MEMB      55              0.0000000000
      7285        55  POPC      H4R            13.2115338755       11.9585472494      -13.8732141079  MEMB      55              0.0000000000
      7286        55  POPC      H4S            14.4469866855       12.8040314281      -13.0731270827  MEMB      55              0.0000000000
      7287        55  POPC      C25            14.5225092729       10.7265610922      -12.6007254247  MEMB      55              0.0000000000
      7288        55  POPC      H5R            15.5359678856       10.8499945500      -12.1625622734  MEMB      55              0.0000000000
      7289        55  POPC      H5S            14.4303410824        9.7763438561      -13.1689801353  MEMB      55              0.0000000000
      7290        55  POPC      C26            13.4338051201       10.7538604318      -11.4718439489  MEMB      55              0.0000000000
      7291        55  POPC      H6R            12.4008119418       10.9044591425      -11.8520616827  MEMB      55              0.0000000000
      7292        55  POPC      H6S            13.6926883703       11.4859948528      -10.6773121020  MEMB      55              0.0000000000
      7293        55  POPC      C27            13.4036424699        9.3129247167      -10.9370111077  MEMB      55              0.0000000000
      7294        55  POPC      H7R            13.1075113151        8.5339107289      -11.6716981389  MEMB      55              0.0000000000
      7295        55  POPC      H7S            12.5958407193        9.2025479053      -10.1822969189  MEMB      55              0.0000000000
      7296        55  POPC      C28            14.7338537694        8.9619894214      -10.1720079039  MEMB      55              0.0000000000
      7297        55  POPC      H8R            14.7109868168        9.5784354741       -9.2479990776  MEMB      55              0.0000000000
      7298        55  POPC      H8S            15.6816777247        9.2781737815      -10.6577833005  MEMB      55              0.0000000000
      7299        55  POPC      C29            14.7929815097        7.4371365076      -10.0012571933  MEMB      55              0.0000000000
      7300        55  POPC      H91            14.8384027677        7.0112030834      -11.0144288235  MEMB      55              0.0000000000
      7301        55  POPC      C210           15.0539965446        6.6587555477       -9.0088129221  MEMB      55              0.0000000000
      7302        55  POPC      H101           15.1327484613        5.5679726806       -9.1270982659  MEMB      55              0.0000000000
      7303        55  POPC      C211           15.3837994448        7.0670174721       -7.5579108245  MEMB      55              0.0000000000
      7304        55  POPC      H11R           14.6633591901        6.5412624237       -6.8954387444  MEMB      55              0.0000000000
      7305        55  POPC      H11S           15.2099874548        8.1511158630       -7.3880838852  MEMB      55              0.0000000000
      7306        55  POPC      C212           16.8267408348        6.7323843893       -7.0469054816  MEMB      55              0.0000000000
      7307        55  POPC      H12R           17.5127268413        7.4465643276       -7.5505826759  MEMB      55              0.0000000000
      7308        55  POPC      H12S           17.2765215527        5.7602572762       -7.3418414650  MEMB      55              0.0000000000
      7309        55  POPC      C213           16.7750563072        6.7501505843       -5.4665244336  MEMB      55              0.0000000000
      7310        55  POPC      H13R           15.9838049970        6.0248980370       -5.1797281900  MEMB      55              0.0000000000
      7311        55  POPC      H13S           16.4267648433        7.7726332176       -5.2066333333  MEMB      55              0.0000000000
      7312        55  POPC      C214           18.1334174566        6.7037899540       -4.8506144052  MEMB      55              0.0000000000
      7313        55  POPC      H14R           18.8526737765        7.2242987194       -5.5184932436  MEMB      55              0.0000000000
      7314        55  POPC      H14S           18.4526830304        5.6438416327       -4.7562717711  MEMB      55              0.0000000000
      7315        55  POPC      C215           18.1981362009        7.3228691427       -3.4450520958  MEMB      55              0.0000000000
      7316        55  POPC      H15R           17.6869093537        6.6729804217       -2.7030188251  MEMB      55              0.0000000000
      7317        55  POPC      H15S           17.7474595185        8.3225914331       -3.2668203993  MEMB      55              0.0000000000
      7318        55  POPC      C216           19.5467271566        7.3010612036       -2.7075607324  MEMB      55              0.0000000000
      7319        55  POPC      H16R           20.3037012554        7.7591236374       -3.3794918837  MEMB      55              0.0000000000
      7320        55  POPC      H16S           19.9856376193        6.3324541772       -2.3858792493  MEMB      55              0.0000000000
      7321        55  POPC      C217           19.5800163024        8.0536166791       -1.3837467782  MEMB      55              0.0000000000
      7322        55  POPC      H17R           19.4722668752        9.1482368542       -1.5403295686  MEMB      55              0.0000000000
      7323        55  POPC      H17S           20.5983294087        7.7009371865       -1.1136070231  MEMB      55              0.0000000000
      7324        55  POPC      C218           18.6437323688        7.5589698389       -0.2331603857  MEMB      55              0.0000000000
      7325        55  POPC      H18R           18.5832528794        6.4496918072       -0.2460413281  MEMB      55              0.0000000000
      7326        55  POPC      H18S           17.6168529586        7.8978284104       -0.4881393241  MEMB      55              0.0000000000
      7327        55  POPC      H18T           18.9628874582        7.9127617090        0.7704795680  MEMB      55              0.0000000000
      7328        55  POPC      C33            19.4740880787        8.7140501583      -11.1692859614  MEMB      55              0.0000000000
      7329        55  POPC      H3X            20.2142879267        9.5132843790      -11.3875743234  MEMB      55              0.0000000000
      7330        55  POPC      H3Y            19.9179821014        7.7775127204      -11.5695068206  MEMB      55              0.0000000000
      7331        55  POPC      C34            19.3170646452        8.6472648885       -9.6508496620  MEMB      55              0.0000000000
      7332        55  POPC      H4X            18.4467342083        8.0459780195       -9.3112913913  MEMB      55              0.0000000000
      7333        55  POPC      H4Y            19.3198033616        9.6279796090       -9.1288223820  MEMB      55              0.0000000000
      7334        55  POPC      C35            20.4352430336        7.8520887567       -9.0135104785  MEMB      55              0.0000000000
      7335        55  POPC      H5X            20.5172139156        6.8407678137       -9.4660942831  MEMB      55              0.0000000000
      7336        55  POPC      H5Y            20.1749479090        7.5881815306       -7.9661707133  MEMB      55              0.0000000000
      7337        55  POPC      C36            21.8324146836        8.4570101327       -9.0087976699  MEMB      55              0.0000000000
      7338        55  POPC      H6X            22.1157086108        8.5811168249      -10.0758790407  MEMB      55              0.0000000000
      7339        55  POPC      H6Y            22.4460227997        7.7326996446       -8.4315805971  MEMB      55              0.0000000000
      7340        55  POPC      C37            21.8323826953        9.8536059958       -8.2806434694  MEMB      55              0.0000000000
      7341        55  POPC      H7X            21.3866916366       10.6572838802       -8.9049689471  MEMB      55              0.0000000000
      7342        55  POPC      H7Y            22.8955439598       10.1075924052       -8.0818958680  MEMB      55              0.0000000000
      7343        55  POPC      C38            21.1868266792        9.8993715369       -6.9140993414  MEMB      55              0.0000000000
      7344        55  POPC      H8X            21.6231275597        9.1134051994       -6.2612435993  MEMB      55              0.0000000000
      7345        55  POPC      H8Y            20.0847261019        9.7622115596       -6.8843868550  MEMB      55              0.0000000000
      7346        55  POPC      C39            21.4378268423       11.3385968359       -6.2560415610  MEMB      55              0.0000000000
      7347        55  POPC      H9X            22.4870873323       11.6884565228       -6.3607878121  MEMB      55              0.0000000000
      7348        55  POPC      H9Y            21.2544319559       11.1268368677       -5.1809396189  MEMB      55              0.0000000000
      7349        55  POPC      C310           20.4876580438       12.4665026022       -6.7198926332  MEMB      55              0.0000000000
      7350        55  POPC      H10X           20.3487170197       12.3555883337       -7.8165756072  MEMB      55              0.0000000000
      7351        55  POPC      H10Y           20.8822112895       13.4947935853       -6.5740609162  MEMB      55              0.0000000000
      7352        55  POPC      C311           19.0866197780       12.3670269007       -5.9948506254  MEMB      55              0.0000000000
      7353        55  POPC      H11X           18.9578015573       11.3955275164       -5.4714808756  MEMB      55              0.0000000000
      7354        55  POPC      H11Y           18.3315640830       12.4321293383       -6.8072382660  MEMB      55              0.0000000000
      7355        55  POPC      C312           18.8610336719       13.4437447456       -4.9399879915  MEMB      55              0.0000000000
      7356        55  POPC      H12X           18.8871814588       14.4297055938       -5.4513772197  MEMB      55              0.0000000000
      7357        55  POPC      H12Y           19.6403250827       13.3707348580       -4.1515113342  MEMB      55              0.0000000000
      7358        55  POPC      C313           17.4092708049       13.4470963941       -4.4013475409  MEMB      55              0.0000000000
      7359        55  POPC      H13X           16.7191880414       13.2756908538       -5.2550019187  MEMB      55              0.0000000000
      7360        55  POPC      H13Y           17.1881345324       14.4824879958       -4.0646227078  MEMB      55              0.0000000000
      7361        55  POPC      C314           17.0530713256       12.6057362829       -3.1765445725  MEMB      55              0.0000000000
      7362        55  POPC      H14X           17.2166144858       11.5191208253       -3.3403783073  MEMB      55              0.0000000000
      7363        55  POPC      H14Y           15.9601128688       12.7652992050       -3.0569526060  MEMB      55              0.0000000000
      7364        55  POPC      C315           17.6712124368       13.0907932349       -1.9160175825  MEMB      55              0.0000000000
      7365        55  POPC      H15X           17.1182155635       14.0405002901       -1.7530096398  MEMB      55              0.0000000000
      7366        55  POPC      H15Y           18.7557089927       13.3312237790       -1.9355545418  MEMB      55              0.0000000000
      7367        55  POPC      C316           17.4580583928       12.2061351837       -0.6233865001  MEMB      55              0.0000000000
      7368        55  POPC      H16X           17.3623992134       11.1103136947       -0.7794175156  MEMB      55              0.0000000000
      7369        55  POPC      H16Y           16.4621630145       12.4920897327       -0.2224588745  MEMB      55              0.0000000000
      7370        55  POPC      H16Z           18.2524745260       12.3285185284        0.1435857057  MEMB      55              0.0000000000
      7371        56  POPC      N              -6.0260796408      -21.2610664380      -20.5318640048  MEMB      56              0.0000000000
      7372        56  POPC      C12            -5.5896494139      -22.5997267157      -19.8463793758  MEMB      56              0.0000000000
      7373        56  POPC      H12A           -5.6780763880      -23.2498428830      -20.7042427923  MEMB      56              0.0000000000
      7374        56  POPC      H12B           -6.2828624138      -22.8280394355      -19.0503083644  MEMB      56              0.0000000000
      7375        56  POPC      C13            -6.0213594287      -20.1030814453      -19.5212440875  MEMB      56              0.0000000000
      7376        56  POPC      H13A           -6.2894863434      -19.1595647609      -19.9732223681  MEMB      56              0.0000000000
      7377        56  POPC      H13B           -6.7258089704      -20.2344199465      -18.7132210706  MEMB      56              0.0000000000
      7378        56  POPC      H13C           -5.0640592388      -20.0779273069      -19.0219010515  MEMB      56              0.0000000000
      7379        56  POPC      C14            -4.9978442560      -20.8804299513      -21.6554169057  MEMB      56              0.0000000000
      7380        56  POPC      H14A           -4.0199425462      -20.7996315841      -21.2042186704  MEMB      56              0.0000000000
      7381        56  POPC      H14B           -4.9277874150      -21.5584026473      -22.4931789132  MEMB      56              0.0000000000
      7382        56  POPC      H14C           -5.4214153520      -19.9969576498      -22.1098001035  MEMB      56              0.0000000000
      7383        56  POPC      C15            -7.3596317506      -21.3960137811      -21.1297156750  MEMB      56              0.0000000000
      7384        56  POPC      H15A           -8.1021607183      -21.5167988107      -20.3548210640  MEMB      56              0.0000000000
      7385        56  POPC      H15B           -7.4173319515      -22.3573948099      -21.6184051695  MEMB      56              0.0000000000
      7386        56  POPC      H15C           -7.4633628219      -20.4637425240      -21.6649822382  MEMB      56              0.0000000000
      7387        56  POPC      C11            -4.1605203160      -22.6961497419      -19.2502351772  MEMB      56              0.0000000000
      7388        56  POPC      H11A           -3.4610375025      -22.3694554233      -20.0491818140  MEMB      56              0.0000000000
      7389        56  POPC      H11B           -4.0215717801      -23.7555743196      -18.9458772367  MEMB      56              0.0000000000
      7390        56  POPC      P              -2.5803379874      -21.8762825486      -17.4105062693  MEMB      56              0.0000000000
      7391        56  POPC      O13            -2.5632871281      -20.9235213369      -16.2944067101  MEMB      56              0.0000000000
      7392        56  POPC      O14            -1.4934491533      -21.8114540614      -18.3913348570  MEMB      56              0.0000000000
      7393        56  POPC      O12            -3.9662933528      -21.7243756752      -18.1680964148  MEMB      56              0.0000000000
      7394        56  POPC      O11            -2.7408107028      -23.3534690029      -16.8008005195  MEMB      56              0.0000000000
      7395        56  POPC      C1             -1.6701466281      -23.9079654881      -16.0926133380  MEMB      56              0.0000000000
      7396        56  POPC      HA             -0.8351958974      -23.2780469183      -15.7179385252  MEMB      56              0.0000000000
      7397        56  POPC      HB             -1.2383342461      -24.7335745984      -16.6977818053  MEMB      56              0.0000000000
      7398        56  POPC      C2             -2.2049182259      -24.4772797111      -14.6964078071  MEMB      56              0.0000000000
      7399        56  POPC      HS             -2.7822251732      -25.3971709059      -14.9305822822  MEMB      56              0.0000000000
      7400        56  POPC      O21            -3.0033989862      -23.3856142063      -14.1186258414  MEMB      56              0.0000000000
      7401        56  POPC      C21            -4.2448968897      -23.6698389266      -13.8501042737  MEMB      56              0.0000000000
      7402        56  POPC      O22            -4.8768275888      -24.6641733071      -14.1749247822  MEMB      56              0.0000000000
      7403        56  POPC      C22            -4.7474660666      -22.4555194187      -12.9765408709  MEMB      56              0.0000000000
      7404        56  POPC      H2R            -4.7123357764      -21.5017202827      -13.5451833921  MEMB      56              0.0000000000
      7405        56  POPC      H2S            -4.0591232316      -22.4650699385      -12.1045237597  MEMB      56              0.0000000000
      7406        56  POPC      C3             -1.1168708372      -24.8583403298      -13.6239314512  MEMB      56              0.0000000000
      7407        56  POPC      HX             -0.4012675761      -25.6404716870      -13.9563522980  MEMB      56              0.0000000000
      7408        56  POPC      HY             -1.6422605210      -25.2248028035      -12.7161913997  MEMB      56              0.0000000000
      7409        56  POPC      O31            -0.4024437995      -23.7778943480      -13.2493382455  MEMB      56              0.0000000000
      7410        56  POPC      C31            -0.7863210117      -23.0779454333      -12.2059572309  MEMB      56              0.0000000000
      7411        56  POPC      O32            -1.8107734786      -23.3176170917      -11.5404604007  MEMB      56              0.0000000000
      7412        56  POPC      C32             0.0172716099      -21.8218555320      -12.1834143025  MEMB      56              0.0000000000
      7413        56  POPC      H2X             0.7585757850      -21.8407544867      -13.0107182877  MEMB      56              0.0000000000
      7414        56  POPC      H2Y             0.5686143919      -21.7186375183      -11.2244102547  MEMB      56              0.0000000000
      7415        56  POPC      C23            -6.1714217361      -22.6355439243      -12.4795208836  MEMB      56              0.0000000000
      7416        56  POPC      H3R            -6.9161624708      -22.8059087898      -13.2861546596  MEMB      56              0.0000000000
      7417        56  POPC      H3S            -6.5684192092      -21.7303364997      -11.9722601603  MEMB      56              0.0000000000
      7418        56  POPC      C24            -6.4131068645      -23.9240768731      -11.5515262471  MEMB      56              0.0000000000
      7419        56  POPC      H4R            -6.2856187776      -24.8370471654      -12.1716496860  MEMB      56              0.0000000000
      7420        56  POPC      H4S            -7.4792163559      -23.7971231259      -11.2658442890  MEMB      56              0.0000000000
      7421        56  POPC      C25            -5.3870855843      -24.0680706853      -10.4293028392  MEMB      56              0.0000000000
      7422        56  POPC      H5R            -5.5280453860      -23.1230082836       -9.8624620725  MEMB      56              0.0000000000
      7423        56  POPC      H5S            -4.3456508349      -24.0045245465      -10.8110052347  MEMB      56              0.0000000000
      7424        56  POPC      C26            -5.5694519200      -25.3991068560       -9.5487491390  MEMB      56              0.0000000000
      7425        56  POPC      H6R            -5.7808766412      -26.2623022806      -10.2154675369  MEMB      56              0.0000000000
      7426        56  POPC      H6S            -6.3854575798      -25.1960529957       -8.8226462267  MEMB      56              0.0000000000
      7427        56  POPC      C27            -4.3308015061      -25.7553289269       -8.7211164964  MEMB      56              0.0000000000
      7428        56  POPC      H7R            -3.5615019577      -26.2120189695       -9.3798531044  MEMB      56              0.0000000000
      7429        56  POPC      H7S            -4.7161844895      -26.6380665125       -8.1674236673  MEMB      56              0.0000000000
      7430        56  POPC      C28            -3.8274776777      -24.5926567073       -7.8493745436  MEMB      56              0.0000000000
      7431        56  POPC      H8R            -4.6213840740      -24.3143071645       -7.1237330870  MEMB      56              0.0000000000
      7432        56  POPC      H8S            -3.5784245153      -23.6521243994       -8.3857438292  MEMB      56              0.0000000000
      7433        56  POPC      C29            -2.5509671814      -24.9740718583       -7.0999904582  MEMB      56              0.0000000000
      7434        56  POPC      H91            -2.7823749927      -25.5544469112       -6.1946646890  MEMB      56              0.0000000000
      7435        56  POPC      C210           -1.2892604266      -24.5758502226       -7.3104107101  MEMB      56              0.0000000000
      7436        56  POPC      H101           -0.5452069492      -24.9775065631       -6.6068086127  MEMB      56              0.0000000000
      7437        56  POPC      C211           -0.6824961935      -23.6436469454       -8.3163356097  MEMB      56              0.0000000000
      7438        56  POPC      H11R           -1.4477203757      -23.3293849604       -9.0579493657  MEMB      56              0.0000000000
      7439        56  POPC      H11S            0.2331891141      -24.1155120602       -8.7324903597  MEMB      56              0.0000000000
      7440        56  POPC      C212           -0.1371586271      -22.3652698508       -7.6977126313  MEMB      56              0.0000000000
      7441        56  POPC      H12R            0.3814863632      -21.7243527823       -8.4423965565  MEMB      56              0.0000000000
      7442        56  POPC      H12S            0.6491997376      -22.5453883762       -6.9338281407  MEMB      56              0.0000000000
      7443        56  POPC      C213           -1.1800102355      -21.3734659811       -7.1749750888  MEMB      56              0.0000000000
      7444        56  POPC      H13R           -1.9808493905      -21.8528311864       -6.5723259664  MEMB      56              0.0000000000
      7445        56  POPC      H13S           -1.6772147242      -20.7474328145       -7.9464620767  MEMB      56              0.0000000000
      7446        56  POPC      C214           -0.4338947053      -20.2924471716       -6.2729824267  MEMB      56              0.0000000000
      7447        56  POPC      H14R           -0.1874563796      -19.4398978863       -6.9413744108  MEMB      56              0.0000000000
      7448        56  POPC      H14S            0.5030668811      -20.7217602764       -5.8581156171  MEMB      56              0.0000000000
      7449        56  POPC      C215           -1.3072295294      -19.6630111400       -5.2603992863  MEMB      56              0.0000000000
      7450        56  POPC      H15R           -2.0629532219      -19.0959242753       -5.8448773158  MEMB      56              0.0000000000
      7451        56  POPC      H15S           -0.6859758637      -18.9413414935       -4.6880721235  MEMB      56              0.0000000000
      7452        56  POPC      C216           -1.9061188734      -20.7415728669       -4.2392448062  MEMB      56              0.0000000000
      7453        56  POPC      H16R           -2.6193997887      -21.4714042046       -4.6784454725  MEMB      56              0.0000000000
      7454        56  POPC      H16S           -2.5709714304      -20.1941836393       -3.5373493637  MEMB      56              0.0000000000
      7455        56  POPC      C217           -0.7615971887      -21.4128931829       -3.4421333466  MEMB      56              0.0000000000
      7456        56  POPC      H17R           -0.2142723227      -20.5827574871       -2.9465213061  MEMB      56              0.0000000000
      7457        56  POPC      H17S           -0.1678490152      -22.0185276771       -4.1597621166  MEMB      56              0.0000000000
      7458        56  POPC      C218           -1.1122865785      -22.3485429359       -2.2632868338  MEMB      56              0.0000000000
      7459        56  POPC      H18R           -0.1952965824      -22.5993541948       -1.6883572495  MEMB      56              0.0000000000
      7460        56  POPC      H18S           -1.4382715053      -23.3420102646       -2.6388908601  MEMB      56              0.0000000000
      7461        56  POPC      H18T           -1.9217819266      -21.9923784384       -1.5908405798  MEMB      56              0.0000000000
      7462        56  POPC      C33            -0.7357120281      -20.5592093355      -12.3280019502  MEMB      56              0.0000000000
      7463        56  POPC      H3X            -1.4318401461      -20.4416970518      -13.1858582777  MEMB      56              0.0000000000
      7464        56  POPC      H3Y             0.0452197818      -19.7727181548      -12.4047992700  MEMB      56              0.0000000000
      7465        56  POPC      C34            -1.5324229463      -20.2682664724      -10.9232315704  MEMB      56              0.0000000000
      7466        56  POPC      H4X            -0.9745672831      -19.8335775845      -10.0663982061  MEMB      56              0.0000000000
      7467        56  POPC      H4Y            -2.1236278067      -21.1775698006      -10.6824713054  MEMB      56              0.0000000000
      7468        56  POPC      C35            -2.5264633693      -19.1121681641      -11.1949477056  MEMB      56              0.0000000000
      7469        56  POPC      H5X            -3.0489799454      -19.1203687784      -12.1753712196  MEMB      56              0.0000000000
      7470        56  POPC      H5Y            -1.9736605990      -18.1532712317      -11.0987911134  MEMB      56              0.0000000000
      7471        56  POPC      C36            -3.5506807298      -19.1218761759      -10.0136602457  MEMB      56              0.0000000000
      7472        56  POPC      H6X            -4.1707434668      -18.2550847363      -10.3275317915  MEMB      56              0.0000000000
      7473        56  POPC      H6Y            -3.0274577091      -18.7758269773       -9.0967038314  MEMB      56              0.0000000000
      7474        56  POPC      C37            -4.4396114359      -20.4134799311       -9.8890368259  MEMB      56              0.0000000000
      7475        56  POPC      H7X            -3.9569005456      -21.3218648241       -9.4693356866  MEMB      56              0.0000000000
      7476        56  POPC      H7Y            -4.7099764995      -20.6688916089      -10.9359313675  MEMB      56              0.0000000000
      7477        56  POPC      C38            -5.6612039756      -20.1419098114       -9.0815066694  MEMB      56              0.0000000000
      7478        56  POPC      H8X            -6.3007171472      -21.0124893905       -9.3411900886  MEMB      56              0.0000000000
      7479        56  POPC      H8Y            -6.2241237345      -19.2024071312       -9.2679915010  MEMB      56              0.0000000000
      7480        56  POPC      C39            -5.3342210199      -20.3899899882       -7.5473121671  MEMB      56              0.0000000000
      7481        56  POPC      H9X            -4.4360650030      -19.8204788558       -7.2259183985  MEMB      56              0.0000000000
      7482        56  POPC      H9Y            -5.0227466458      -21.4564315835       -7.5499474198  MEMB      56              0.0000000000
      7483        56  POPC      C310           -6.5762217231      -20.2827479594       -6.7171428440  MEMB      56              0.0000000000
      7484        56  POPC      H10X           -7.2590923259      -21.0913180582       -7.0551113795  MEMB      56              0.0000000000
      7485        56  POPC      H10Y           -7.0587983597      -19.3286230726       -7.0189489384  MEMB      56              0.0000000000
      7486        56  POPC      C311           -6.4616314277      -20.2742550399       -5.2308163316  MEMB      56              0.0000000000
      7487        56  POPC      H11X           -7.4314889713      -20.3928700553       -4.7020175792  MEMB      56              0.0000000000
      7488        56  POPC      H11Y           -6.0834713587      -19.2907603109       -4.8786029080  MEMB      56              0.0000000000
      7489        56  POPC      C312           -5.6300877943      -21.4121451704       -4.6716065674  MEMB      56              0.0000000000
      7490        56  POPC      H12X           -4.6383291111      -21.1997603707       -5.1250687830  MEMB      56              0.0000000000
      7491        56  POPC      H12Y           -6.0135195499      -22.3997194567       -5.0062674405  MEMB      56              0.0000000000
      7492        56  POPC      C313           -5.4352280688      -21.3503215483       -3.0931173581  MEMB      56              0.0000000000
      7493        56  POPC      H13X           -6.3777429617      -21.3060318381       -2.5065802551  MEMB      56              0.0000000000
      7494        56  POPC      H13Y           -4.8082805505      -20.4566493035       -2.8867009225  MEMB      56              0.0000000000
      7495        56  POPC      C314           -4.8742487330      -22.7239370427       -2.6401543239  MEMB      56              0.0000000000
      7496        56  POPC      H14X           -3.9006572932      -22.6885291879       -3.1741833559  MEMB      56              0.0000000000
      7497        56  POPC      H14Y           -5.5527102856      -23.5409500610       -2.9664988008  MEMB      56              0.0000000000
      7498        56  POPC      C315           -4.6077725724      -22.9533555828       -1.1673360810  MEMB      56              0.0000000000
      7499        56  POPC      H15X           -3.9726240024      -22.1131167343       -0.8139164915  MEMB      56              0.0000000000
      7500        56  POPC      H15Y           -3.9887823606      -23.8688634741       -1.0532448268  MEMB      56              0.0000000000
      7501        56  POPC      C316           -5.8442109477      -23.2119906087       -0.3239062739  MEMB      56              0.0000000000
      7502        56  POPC      H16X           -5.6149028741      -23.3281794304        0.7569453909  MEMB      56              0.0000000000
      7503        56  POPC      H16Y           -6.3548691556      -24.1675355028       -0.5698394290  MEMB      56              0.0000000000
      7504        56  POPC      H16Z           -6.5421027244      -22.3475536731       -0.3280130261  MEMB      56              0.0000000000
      7505        57  POPC      N             -23.4548012143        5.5720176982      -17.9258138169  MEMB      57              0.0000000000
      7506        57  POPC      C12           -22.8163500186        4.2570683239      -17.4833976191  MEMB      57              0.0000000000
      7507        57  POPC      H12A          -23.6375606672        3.5573116675      -17.4348834590  MEMB      57              0.0000000000
      7508        57  POPC      H12B          -22.4098584315        4.3564435433      -16.4877626052  MEMB      57              0.0000000000
      7509        57  POPC      C13           -22.3896932188        6.6453308004      -18.1158642763  MEMB      57              0.0000000000
      7510        57  POPC      H13A          -21.6728832847        6.4177028241      -18.8909572599  MEMB      57              0.0000000000
      7511        57  POPC      H13B          -23.0071465996        7.4953752604      -18.3660152280  MEMB      57              0.0000000000
      7512        57  POPC      H13C          -21.8273248263        6.6869094842      -17.1947708897  MEMB      57              0.0000000000
      7513        57  POPC      C14           -24.2523048532        5.3179720402      -19.1514936297  MEMB      57              0.0000000000
      7514        57  POPC      H14A          -23.6784332845        4.8709133910      -19.9497479762  MEMB      57              0.0000000000
      7515        57  POPC      H14B          -25.1370257884        4.7090820865      -19.0378199111  MEMB      57              0.0000000000
      7516        57  POPC      H14C          -24.5377823278        6.3298419210      -19.3985197400  MEMB      57              0.0000000000
      7517        57  POPC      C15           -24.3701200810        5.9253649129      -16.7975389162  MEMB      57              0.0000000000
      7518        57  POPC      H15A          -24.6700163779        6.9564913870      -16.9126063811  MEMB      57              0.0000000000
      7519        57  POPC      H15B          -23.8495917335        5.9040054842      -15.8514976647  MEMB      57              0.0000000000
      7520        57  POPC      H15C          -25.2210040446        5.2758831700      -16.6541168250  MEMB      57              0.0000000000
      7521        57  POPC      C11           -21.7048892679        3.6445181838      -18.3082937405  MEMB      57              0.0000000000
      7522        57  POPC      H11A          -21.3979948308        2.6638637587      -17.8858559644  MEMB      57              0.0000000000
      7523        57  POPC      H11B          -20.9007737664        4.4082027972      -18.3754121989  MEMB      57              0.0000000000
      7524        57  POPC      P             -22.8325030007        2.2028992487      -20.2928957841  MEMB      57              0.0000000000
      7525        57  POPC      O13           -21.9486134485        1.0482534710      -20.5692652288  MEMB      57              0.0000000000
      7526        57  POPC      O14           -23.5837711001        2.6613691273      -21.4942573431  MEMB      57              0.0000000000
      7527        57  POPC      O12           -22.0286633867        3.4434288672      -19.7106733740  MEMB      57              0.0000000000
      7528        57  POPC      O11           -23.7876787163        1.8602717263      -19.1505062222  MEMB      57              0.0000000000
      7529        57  POPC      C1            -24.9191397120        1.0573779855      -19.6430100101  MEMB      57              0.0000000000
      7530        57  POPC      HA            -24.4859208648        0.1571718212      -20.1290872222  MEMB      57              0.0000000000
      7531        57  POPC      HB            -25.5901976246        1.6685333708      -20.2837061255  MEMB      57              0.0000000000
      7532        57  POPC      C2            -25.7739264225        0.6608629990      -18.4218010933  MEMB      57              0.0000000000
      7533        57  POPC      HS            -26.6628670600        0.0681087035      -18.7263468249  MEMB      57              0.0000000000
      7534        57  POPC      O21           -26.1689535678        1.8730001980      -17.7214837803  MEMB      57              0.0000000000
      7535        57  POPC      C21           -27.0677573290        1.6919448658      -16.7055100469  MEMB      57              0.0000000000
      7536        57  POPC      O22           -27.7940363831        0.7262319628      -16.5736420572  MEMB      57              0.0000000000
      7537        57  POPC      C22           -27.1099985170        2.9046626500      -15.8144219676  MEMB      57              0.0000000000
      7538        57  POPC      H2R           -27.5348291014        3.7359048630      -16.4168140176  MEMB      57              0.0000000000
      7539        57  POPC      H2S           -26.1206804063        3.1678236373      -15.3827773899  MEMB      57              0.0000000000
      7540        57  POPC      C3            -24.9550705129       -0.1822385800      -17.4983450498  MEMB      57              0.0000000000
      7541        57  POPC      HX            -24.3589609032       -0.9715114655      -18.0043321462  MEMB      57              0.0000000000
      7542        57  POPC      HY            -25.4795853033       -0.7621101247      -16.7090705243  MEMB      57              0.0000000000
      7543        57  POPC      O31           -24.2155175343        0.8069018258      -16.7649437103  MEMB      57              0.0000000000
      7544        57  POPC      C31           -23.3156939624        0.2432662615      -15.9012136209  MEMB      57              0.0000000000
      7545        57  POPC      O32           -23.0527369938       -0.9403628665      -15.9161951898  MEMB      57              0.0000000000
      7546        57  POPC      C32           -22.6757812096        1.2970623443      -15.0412454031  MEMB      57              0.0000000000
      7547        57  POPC      H2X           -23.0577600554        2.3064802827      -15.3048525491  MEMB      57              0.0000000000
      7548        57  POPC      H2Y           -21.5986797471        1.4592343227      -15.2600461255  MEMB      57              0.0000000000
      7549        57  POPC      C23           -28.1542223709        2.8545761775      -14.7166307907  MEMB      57              0.0000000000
      7550        57  POPC      H3R           -28.0528546684        1.9130258855      -14.1356585666  MEMB      57              0.0000000000
      7551        57  POPC      H3S           -29.1526107398        2.9642166166      -15.1915205002  MEMB      57              0.0000000000
      7552        57  POPC      C24           -28.2226495828        4.0218633925      -13.6935804139  MEMB      57              0.0000000000
      7553        57  POPC      H4R           -28.8694949823        3.6980854525      -12.8503249795  MEMB      57              0.0000000000
      7554        57  POPC      H4S           -28.6437278942        4.8237167726      -14.3370437760  MEMB      57              0.0000000000
      7555        57  POPC      C25           -26.8093356846        4.3646652929      -13.0878330746  MEMB      57              0.0000000000
      7556        57  POPC      H5R           -26.1791019124        4.8434083772      -13.8675326618  MEMB      57              0.0000000000
      7557        57  POPC      H5S           -26.3792985246        3.4191954620      -12.6935293725  MEMB      57              0.0000000000
      7558        57  POPC      C26           -26.9421394149        5.2601355413      -11.8136213619  MEMB      57              0.0000000000
      7559        57  POPC      H6R           -27.9084101832        4.9207151140      -11.3829994714  MEMB      57              0.0000000000
      7560        57  POPC      H6S           -27.1910117308        6.2698893022      -12.2044940442  MEMB      57              0.0000000000
      7561        57  POPC      C27           -25.7649735616        5.1247119819      -10.8374378026  MEMB      57              0.0000000000
      7562        57  POPC      H7R           -24.8191490125        5.1510369544      -11.4197124200  MEMB      57              0.0000000000
      7563        57  POPC      H7S           -25.8511693077        4.1794299575      -10.2600874562  MEMB      57              0.0000000000
      7564        57  POPC      C28           -25.7148186052        6.2187125621       -9.7103748147  MEMB      57              0.0000000000
      7565        57  POPC      H8R           -25.6408229204        7.2327414373      -10.1582486425  MEMB      57              0.0000000000
      7566        57  POPC      H8S           -24.7811640728        6.0194803799       -9.1421176377  MEMB      57              0.0000000000
      7567        57  POPC      C29           -26.9478084316        6.2931812860       -8.8392126682  MEMB      57              0.0000000000
      7568        57  POPC      H91           -27.9171491161        6.4540422893       -9.3336849349  MEMB      57              0.0000000000
      7569        57  POPC      C210          -26.9229738431        6.2614277513       -7.4857834379  MEMB      57              0.0000000000
      7570        57  POPC      H101          -27.9233956541        6.3084603960       -7.0308724050  MEMB      57              0.0000000000
      7571        57  POPC      C211          -25.7036716231        6.1383658012       -6.6301582451  MEMB      57              0.0000000000
      7572        57  POPC      H11R          -25.6250565782        7.0990261591       -6.0776429734  MEMB      57              0.0000000000
      7573        57  POPC      H11S          -24.7684585750        5.9515740973       -7.2000763037  MEMB      57              0.0000000000
      7574        57  POPC      C212          -25.8064681193        4.9793465850       -5.6051000895  MEMB      57              0.0000000000
      7575        57  POPC      H12R          -26.8089928314        5.0818308141       -5.1373797156  MEMB      57              0.0000000000
      7576        57  POPC      H12S          -24.9854086401        5.2218399151       -4.8970183190  MEMB      57              0.0000000000
      7577        57  POPC      C213          -25.5101381656        3.6645863407       -6.2494521441  MEMB      57              0.0000000000
      7578        57  POPC      H13R          -24.4178935720        3.5098234752       -6.3812518729  MEMB      57              0.0000000000
      7579        57  POPC      H13S          -25.9371156778        3.7790485072       -7.2687221001  MEMB      57              0.0000000000
      7580        57  POPC      C214          -26.0711063084        2.4039720578       -5.5784675549  MEMB      57              0.0000000000
      7581        57  POPC      H14R          -26.0919866222        1.4625643301       -6.1680746813  MEMB      57              0.0000000000
      7582        57  POPC      H14S          -27.1419493887        2.6285690634       -5.3856668298  MEMB      57              0.0000000000
      7583        57  POPC      C215          -25.3988418113        2.1106472945       -4.2674488238  MEMB      57              0.0000000000
      7584        57  POPC      H15R          -26.0460218132        2.7132780241       -3.5949055151  MEMB      57              0.0000000000
      7585        57  POPC      H15S          -24.3739609365        2.5392316282       -4.2834421811  MEMB      57              0.0000000000
      7586        57  POPC      C216          -25.1252287014        0.6025794419       -3.9774597372  MEMB      57              0.0000000000
      7587        57  POPC      H16R          -24.5350138683        0.1748475539       -4.8159185480  MEMB      57              0.0000000000
      7588        57  POPC      H16S          -26.0240975296       -0.0353958650       -3.8383800528  MEMB      57              0.0000000000
      7589        57  POPC      C217          -24.2636269211        0.4296903198       -2.7750016214  MEMB      57              0.0000000000
      7590        57  POPC      H17R          -23.7342946380        1.3437019512       -2.4304570296  MEMB      57              0.0000000000
      7591        57  POPC      H17S          -23.5693614520       -0.3588729811       -3.1362287533  MEMB      57              0.0000000000
      7592        57  POPC      C218          -25.1129150224       -0.1852514466       -1.6085463312  MEMB      57              0.0000000000
      7593        57  POPC      H18R          -25.9262295056       -0.8628636506       -1.9457143123  MEMB      57              0.0000000000
      7594        57  POPC      H18S          -25.5607505824        0.6446922295       -1.0212160447  MEMB      57              0.0000000000
      7595        57  POPC      H18T          -24.5556636331       -0.8178289166       -0.8849191874  MEMB      57              0.0000000000
      7596        57  POPC      C33           -22.8243413464        0.8835104942      -13.5178526968  MEMB      57              0.0000000000
      7597        57  POPC      H3X           -22.0786547845        1.5926868156      -13.0991145978  MEMB      57              0.0000000000
      7598        57  POPC      H3Y           -22.4827302750       -0.1613372146      -13.3568666390  MEMB      57              0.0000000000
      7599        57  POPC      C34           -24.2582140731        1.0796416131      -13.0596498787  MEMB      57              0.0000000000
      7600        57  POPC      H4X           -24.8440134001        0.4067171418      -13.7217168925  MEMB      57              0.0000000000
      7601        57  POPC      H4Y           -24.4205649201        2.1655255320      -13.2294120666  MEMB      57              0.0000000000
      7602        57  POPC      C35           -24.5151680062        0.6400793521      -11.5782686897  MEMB      57              0.0000000000
      7603        57  POPC      H5X           -24.0931847477       -0.3876302077      -11.5702872826  MEMB      57              0.0000000000
      7604        57  POPC      H5Y           -25.5914239095        0.5298812478      -11.3255826162  MEMB      57              0.0000000000
      7605        57  POPC      C36           -23.7433633333        1.3543947793      -10.4822227641  MEMB      57              0.0000000000
      7606        57  POPC      H6X           -24.1245292748        2.3644367021      -10.2198320454  MEMB      57              0.0000000000
      7607        57  POPC      H6Y           -22.7463408964        1.5448196852      -10.9338929214  MEMB      57              0.0000000000
      7608        57  POPC      C37           -23.5330509537        0.5100688622       -9.2254374807  MEMB      57              0.0000000000
      7609        57  POPC      H7X           -22.8725814011       -0.3197892426       -9.5562498251  MEMB      57              0.0000000000
      7610        57  POPC      H7Y           -24.4555252018        0.0185612736       -8.8488970136  MEMB      57              0.0000000000
      7611        57  POPC      C38           -22.9361788120        1.2426267186       -8.0090756327  MEMB      57              0.0000000000
      7612        57  POPC      H8X           -23.7249758627        1.9065936302       -7.5952297982  MEMB      57              0.0000000000
      7613        57  POPC      H8Y           -22.1163177429        1.8655684271       -8.4263196728  MEMB      57              0.0000000000
      7614        57  POPC      C39           -22.2971272741        0.3215161999       -6.9717364665  MEMB      57              0.0000000000
      7615        57  POPC      H9X           -21.4200185257       -0.1458741433       -7.4682724948  MEMB      57              0.0000000000
      7616        57  POPC      H9Y           -23.0781275736       -0.4212928192       -6.7023022005  MEMB      57              0.0000000000
      7617        57  POPC      C310          -21.7839163965        0.9398737584       -5.6800052883  MEMB      57              0.0000000000
      7618        57  POPC      H10X          -21.5824846958        0.0261283811       -5.0809935797  MEMB      57              0.0000000000
      7619        57  POPC      H10Y          -22.6332635475        1.3326134091       -5.0811010459  MEMB      57              0.0000000000
      7620        57  POPC      C311          -20.6028985852        1.9628295186       -5.7932985422  MEMB      57              0.0000000000
      7621        57  POPC      H11X          -20.6475308285        2.4806383567       -6.7752369761  MEMB      57              0.0000000000
      7622        57  POPC      H11Y          -19.6328706252        1.4230527790       -5.7484875330  MEMB      57              0.0000000000
      7623        57  POPC      C312          -20.6955702202        3.0402219552       -4.6837701273  MEMB      57              0.0000000000
      7624        57  POPC      H12X          -21.6537904668        3.5972892876       -4.7600001612  MEMB      57              0.0000000000
      7625        57  POPC      H12Y          -19.9144340236        3.7767464378       -4.9695658266  MEMB      57              0.0000000000
      7626        57  POPC      C313          -20.4468596343        2.6035950657       -3.2228016923  MEMB      57              0.0000000000
      7627        57  POPC      H13X          -19.3724347338        2.7481041645       -2.9798014521  MEMB      57              0.0000000000
      7628        57  POPC      H13Y          -20.6244245863        1.5071833859       -3.2487452268  MEMB      57              0.0000000000
      7629        57  POPC      C314          -21.3979643622        3.2093365786       -2.2207152843  MEMB      57              0.0000000000
      7630        57  POPC      H14X          -21.2633579932        2.7481631631       -1.2189569488  MEMB      57              0.0000000000
      7631        57  POPC      H14Y          -22.4272908073        3.0042109519       -2.5850381414  MEMB      57              0.0000000000
      7632        57  POPC      C315          -21.2967592214        4.7448845874       -2.3101547462  MEMB      57              0.0000000000
      7633        57  POPC      H15X          -21.5596882999        5.1825147647       -3.2969011963  MEMB      57              0.0000000000
      7634        57  POPC      H15Y          -20.2207339677        4.8813041971       -2.0695702335  MEMB      57              0.0000000000
      7635        57  POPC      C316          -22.2316948742        5.6210765484       -1.4069698242  MEMB      57              0.0000000000
      7636        57  POPC      H16X          -23.2294957562        5.8441372238       -1.8416639603  MEMB      57              0.0000000000
      7637        57  POPC      H16Y          -21.7630639485        6.6096035173       -1.2132676017  MEMB      57              0.0000000000
      7638        57  POPC      H16Z          -22.3991376542        5.0118322282       -0.4931285144  MEMB      57              0.0000000000
      7639        58  POPC      N              21.4827779648       -3.8160009799      -20.4105410459  MEMB      58              0.0000000000
      7640        58  POPC      C12            22.7690283756       -4.5826967243      -20.5034691244  MEMB      58              0.0000000000
      7641        58  POPC      H12A           23.1759106836       -4.2630647907      -21.4514576338  MEMB      58              0.0000000000
      7642        58  POPC      H12B           22.5255646546       -5.6348969949      -20.5031988973  MEMB      58              0.0000000000
      7643        58  POPC      C13            21.6358768730       -2.3600509580      -20.3873382754  MEMB      58              0.0000000000
      7644        58  POPC      H13A           22.1058032133       -2.0357534837      -21.3040718720  MEMB      58              0.0000000000
      7645        58  POPC      H13B           20.7106215048       -1.8096169611      -20.3017531621  MEMB      58              0.0000000000
      7646        58  POPC      H13C           22.3218030774       -2.1825296471      -19.5722362315  MEMB      58              0.0000000000
      7647        58  POPC      C14            20.8218352184       -4.0278563756      -21.7284956188  MEMB      58              0.0000000000
      7648        58  POPC      H14A           20.8274078554       -5.0737343742      -21.9977691820  MEMB      58              0.0000000000
      7649        58  POPC      H14B           19.7915455920       -3.7090490013      -21.6713538596  MEMB      58              0.0000000000
      7650        58  POPC      H14C           21.3690415667       -3.5606270660      -22.5338911978  MEMB      58              0.0000000000
      7651        58  POPC      C15            20.6077077353       -4.2253889549      -19.2126836875  MEMB      58              0.0000000000
      7652        58  POPC      H15A           21.0655982086       -3.7985744092      -18.3325895578  MEMB      58              0.0000000000
      7653        58  POPC      H15B           20.4455048889       -5.2930570797      -19.2259132520  MEMB      58              0.0000000000
      7654        58  POPC      H15C           19.6874397140       -3.6620135957      -19.1666940882  MEMB      58              0.0000000000
      7655        58  POPC      C11            23.8022021241       -4.3755987898      -19.3655460445  MEMB      58              0.0000000000
      7656        58  POPC      H11A           24.2263694774       -3.3509898108      -19.2978737658  MEMB      58              0.0000000000
      7657        58  POPC      H11B           24.6758869079       -5.0137050877      -19.6181645578  MEMB      58              0.0000000000
      7658        58  POPC      P              23.2305949668       -6.0883299953      -17.4549115275  MEMB      58              0.0000000000
      7659        58  POPC      O13            22.5527971594       -6.9477799800      -18.4129343440  MEMB      58              0.0000000000
      7660        58  POPC      O14            22.6137478017       -5.8668549427      -16.1123410339  MEMB      58              0.0000000000
      7661        58  POPC      O12            23.2578833830       -4.6477904367      -18.0698657536  MEMB      58              0.0000000000
      7662        58  POPC      O11            24.6816023326       -6.4900961508      -17.3418735449  MEMB      58              0.0000000000
      7663        58  POPC      C1             25.5633008195       -5.8429946639      -16.4294610210  MEMB      58              0.0000000000
      7664        58  POPC      HA             25.1274575545       -4.9337378336      -15.9629701214  MEMB      58              0.0000000000
      7665        58  POPC      HB             26.4284025631       -5.4953446485      -17.0336624476  MEMB      58              0.0000000000
      7666        58  POPC      C2             26.0225457908       -6.7711623332      -15.2993048973  MEMB      58              0.0000000000
      7667        58  POPC      HS             26.6377884477       -7.5018265080      -15.8666917206  MEMB      58              0.0000000000
      7668        58  POPC      O21            24.9674912882       -7.4421983130      -14.5585142182  MEMB      58              0.0000000000
      7669        58  POPC      C21            25.2119063079       -8.5612076638      -13.8508929605  MEMB      58              0.0000000000
      7670        58  POPC      O22            26.1696401092       -9.3065831571      -13.9351239692  MEMB      58              0.0000000000
      7671        58  POPC      C22            23.9262595182       -8.8994774140      -12.9782854447  MEMB      58              0.0000000000
      7672        58  POPC      H2R            24.0405518220       -9.9140300037      -12.5401747649  MEMB      58              0.0000000000
      7673        58  POPC      H2S            22.9579751960       -8.9396951960      -13.5215431266  MEMB      58              0.0000000000
      7674        58  POPC      C3             26.8823233015       -6.0773783635      -14.2299516268  MEMB      58              0.0000000000
      7675        58  POPC      HX             27.7321580838       -5.5568907776      -14.7210674472  MEMB      58              0.0000000000
      7676        58  POPC      HY             27.3414385641       -6.8562877667      -13.5843249704  MEMB      58              0.0000000000
      7677        58  POPC      O31            26.1362173572       -5.1587170400      -13.4869102549  MEMB      58              0.0000000000
      7678        58  POPC      C31            26.6236165598       -4.5875864450      -12.3651774118  MEMB      58              0.0000000000
      7679        58  POPC      O32            27.7750756816       -4.7527425384      -11.9293391009  MEMB      58              0.0000000000
      7680        58  POPC      C32            25.5993040255       -3.6741297379      -11.7824076922  MEMB      58              0.0000000000
      7681        58  POPC      H2X            26.1588786373       -2.8230118104      -11.3387911895  MEMB      58              0.0000000000
      7682        58  POPC      H2Y            25.1417866296       -4.1925285660      -10.9127749696  MEMB      58              0.0000000000
      7683        58  POPC      C23            23.7228323712       -7.8153619694      -11.9080536139  MEMB      58              0.0000000000
      7684        58  POPC      H3R            22.8885737169       -8.1991644628      -11.2827303205  MEMB      58              0.0000000000
      7685        58  POPC      H3S            23.4150695517       -6.8527917415      -12.3696394300  MEMB      58              0.0000000000
      7686        58  POPC      C24            24.9904526318       -7.6209512936      -11.1196367322  MEMB      58              0.0000000000
      7687        58  POPC      H4R            25.6988425017       -6.9323312598      -11.6278760577  MEMB      58              0.0000000000
      7688        58  POPC      H4S            25.5140338457       -8.5961549395      -11.0239209440  MEMB      58              0.0000000000
      7689        58  POPC      C25            24.9132704649       -6.9355333508       -9.7362055013  MEMB      58              0.0000000000
      7690        58  POPC      H5R            23.9381028825       -7.2024930338       -9.2756606886  MEMB      58              0.0000000000
      7691        58  POPC      H5S            24.8574216517       -5.8259388881       -9.7347122138  MEMB      58              0.0000000000
      7692        58  POPC      C26            26.1755597712       -7.1914183605       -8.8060984414  MEMB      58              0.0000000000
      7693        58  POPC      H6R            26.3524619893       -6.2681659356       -8.2139570308  MEMB      58              0.0000000000
      7694        58  POPC      H6S            27.0031721228       -7.3899402866       -9.5202181157  MEMB      58              0.0000000000
      7695        58  POPC      C27            25.9980421106       -8.3171729944       -7.7445331250  MEMB      58              0.0000000000
      7696        58  POPC      H7R            26.9958732027       -8.4039154722       -7.2637738312  MEMB      58              0.0000000000
      7697        58  POPC      H7S            25.6497904111       -9.2667174968       -8.2043234593  MEMB      58              0.0000000000
      7698        58  POPC      C28            25.0067421856       -7.9758948367       -6.6151677249  MEMB      58              0.0000000000
      7699        58  POPC      H8R            24.9046740916       -8.9458967852       -6.0831903451  MEMB      58              0.0000000000
      7700        58  POPC      H8S            24.0949496352       -7.6890473329       -7.1814486616  MEMB      58              0.0000000000
      7701        58  POPC      C29            25.4668374739       -6.8444407440       -5.6905176822  MEMB      58              0.0000000000
      7702        58  POPC      H91            25.1674359882       -5.8195678957       -5.9550810054  MEMB      58              0.0000000000
      7703        58  POPC      C210           26.0867288015       -6.9424752371       -4.5083837073  MEMB      58              0.0000000000
      7704        58  POPC      H101           26.1350907008       -5.9819725006       -3.9744399204  MEMB      58              0.0000000000
      7705        58  POPC      C211           26.4692505229       -8.1883745466       -3.7458200419  MEMB      58              0.0000000000
      7706        58  POPC      H11R           26.3270251314       -9.0426199640       -4.4417782734  MEMB      58              0.0000000000
      7707        58  POPC      H11S           25.8565286553       -8.2001043134       -2.8191301116  MEMB      58              0.0000000000
      7708        58  POPC      C212           27.9528017023       -8.3164539729       -3.5187500914  MEMB      58              0.0000000000
      7709        58  POPC      H12R           28.5245535923       -8.0815913461       -4.4419298619  MEMB      58              0.0000000000
      7710        58  POPC      H12S           28.2242938940       -9.3650044951       -3.2714557220  MEMB      58              0.0000000000
      7711        58  POPC      C213           28.5751764712       -7.3820988181       -2.5457198647  MEMB      58              0.0000000000
      7712        58  POPC      H13R           28.2790474492       -6.3665002595       -2.8851120876  MEMB      58              0.0000000000
      7713        58  POPC      H13S           29.6858185545       -7.4012363421       -2.5664236653  MEMB      58              0.0000000000
      7714        58  POPC      C214           27.9429291585       -7.6801304193       -1.1058347926  MEMB      58              0.0000000000
      7715        58  POPC      H14R           28.3455088337       -8.6915478282       -0.8838310133  MEMB      58              0.0000000000
      7716        58  POPC      H14S           26.8329777739       -7.6676592505       -1.0592180405  MEMB      58              0.0000000000
      7717        58  POPC      C215           28.6445447617       -6.7698073045       -0.0757678775  MEMB      58              0.0000000000
      7718        58  POPC      H15R           29.7359142453       -6.9776288997       -0.0823683923  MEMB      58              0.0000000000
      7719        58  POPC      H15S           28.2407585890       -7.0063296010        0.9318710490  MEMB      58              0.0000000000
      7720        58  POPC      C216           28.3769446775       -5.2880300483       -0.2967129761  MEMB      58              0.0000000000
      7721        58  POPC      H16R           29.1091018019       -5.0605073502       -1.1007651766  MEMB      58              0.0000000000
      7722        58  POPC      H16S           28.7477817321       -4.8251868950        0.6427429113  MEMB      58              0.0000000000
      7723        58  POPC      C217           26.9121677184       -4.8174939023       -0.6387218358  MEMB      58              0.0000000000
      7724        58  POPC      H17R           26.2722733247       -5.1613033990        0.2019046180  MEMB      58              0.0000000000
      7725        58  POPC      H17S           26.6039548572       -5.2548142372       -1.6124131191  MEMB      58              0.0000000000
      7726        58  POPC      C218           26.5720955741       -3.2798456302       -0.6091424145  MEMB      58              0.0000000000
      7727        58  POPC      H18R           27.0141172940       -2.7844057185        0.2816308544  MEMB      58              0.0000000000
      7728        58  POPC      H18S           25.4810667652       -3.0979366382       -0.7134802252  MEMB      58              0.0000000000
      7729        58  POPC      H18T           27.0091096761       -2.9120878417       -1.5620815156  MEMB      58              0.0000000000
      7730        58  POPC      C33            24.4249353052       -3.1443406639      -12.7209707975  MEMB      58              0.0000000000
      7731        58  POPC      H3X            23.8531639331       -4.0067460977      -13.1255140812  MEMB      58              0.0000000000
      7732        58  POPC      H3Y            25.0282795151       -2.5812954081      -13.4647963098  MEMB      58              0.0000000000
      7733        58  POPC      C34            23.4576069539       -2.1287805818      -12.1177182287  MEMB      58              0.0000000000
      7734        58  POPC      H4X            22.8365021112       -1.5939924647      -12.8677523593  MEMB      58              0.0000000000
      7735        58  POPC      H4Y            23.9275490925       -1.3076565433      -11.5352830871  MEMB      58              0.0000000000
      7736        58  POPC      C35            22.2660856514       -2.7795959286      -11.3101674721  MEMB      58              0.0000000000
      7737        58  POPC      H5X            21.4624990611       -3.1890086733      -11.9589750120  MEMB      58              0.0000000000
      7738        58  POPC      H5Y            21.7029052399       -1.9869443409      -10.7727177670  MEMB      58              0.0000000000
      7739        58  POPC      C36            22.6276599245       -3.9246370577      -10.3014615392  MEMB      58              0.0000000000
      7740        58  POPC      H6X            23.3971216124       -3.5577521633       -9.5889692524  MEMB      58              0.0000000000
      7741        58  POPC      H6Y            23.1636184254       -4.7364362967      -10.8381654595  MEMB      58              0.0000000000
      7742        58  POPC      C37            21.4255606959       -4.3778199184       -9.4680425885  MEMB      58              0.0000000000
      7743        58  POPC      H7X            20.7439792185       -4.9902752141      -10.0962666872  MEMB      58              0.0000000000
      7744        58  POPC      H7Y            20.9202489851       -3.4920217060       -9.0271997520  MEMB      58              0.0000000000
      7745        58  POPC      C38            21.7499826318       -5.2062122502       -8.2457231628  MEMB      58              0.0000000000
      7746        58  POPC      H8X            22.4712168055       -5.9288865663       -8.6837693969  MEMB      58              0.0000000000
      7747        58  POPC      H8Y            20.8278682366       -5.7470288431       -7.9431619199  MEMB      58              0.0000000000
      7748        58  POPC      C39            22.2540522975       -4.5637359402       -6.9721158239  MEMB      58              0.0000000000
      7749        58  POPC      H9X            23.2479729602       -4.1687065873       -7.2727726589  MEMB      58              0.0000000000
      7750        58  POPC      H9Y            22.5147349829       -5.3509215876       -6.2327217763  MEMB      58              0.0000000000
      7751        58  POPC      C310           21.4295779101       -3.4464271118       -6.3254344099  MEMB      58              0.0000000000
      7752        58  POPC      H10X           20.5521041360       -3.8500442167       -5.7763857274  MEMB      58              0.0000000000
      7753        58  POPC      H10Y           20.9806360872       -2.7983641936       -7.1082420706  MEMB      58              0.0000000000
      7754        58  POPC      C311           22.3083386565       -2.5694250602       -5.3815116550  MEMB      58              0.0000000000
      7755        58  POPC      H11X           21.6398925606       -1.7224459559       -5.1166972431  MEMB      58              0.0000000000
      7756        58  POPC      H11Y           23.1192537748       -2.1214534783       -5.9947489092  MEMB      58              0.0000000000
      7757        58  POPC      C312           22.9853840499       -3.3430873421       -4.2287676171  MEMB      58              0.0000000000
      7758        58  POPC      H12X           23.6664302768       -2.6705049745       -3.6647373288  MEMB      58              0.0000000000
      7759        58  POPC      H12Y           23.4462107406       -4.2790955526       -4.6106685101  MEMB      58              0.0000000000
      7760        58  POPC      C313           21.9241160277       -3.8723938453       -3.1694433016  MEMB      58              0.0000000000
      7761        58  POPC      H13X           21.1542962789       -4.5830072997       -3.5392096714  MEMB      58              0.0000000000
      7762        58  POPC      H13Y           21.2700179118       -3.0066529611       -2.9307610847  MEMB      58              0.0000000000
      7763        58  POPC      C314           22.5639216210       -4.4893170180       -1.9384319501  MEMB      58              0.0000000000
      7764        58  POPC      H14X           21.7852965570       -4.6400483981       -1.1603944216  MEMB      58              0.0000000000
      7765        58  POPC      H14Y           23.3669409794       -3.8352808427       -1.5362927657  MEMB      58              0.0000000000
      7766        58  POPC      C315           23.2699728637       -5.9262619752       -2.2462203932  MEMB      58              0.0000000000
      7767        58  POPC      H15X           24.2651128510       -5.6223272792       -2.6356308521  MEMB      58              0.0000000000
      7768        58  POPC      H15Y           22.7211422712       -6.4204827769       -3.0761901747  MEMB      58              0.0000000000
      7769        58  POPC      C316           23.4417303973       -6.8706056506       -1.0620079328  MEMB      58              0.0000000000
      7770        58  POPC      H16X           24.1876176298       -6.5589090677       -0.2998946181  MEMB      58              0.0000000000
      7771        58  POPC      H16Y           23.7290531457       -7.8901245394       -1.3971912755  MEMB      58              0.0000000000
      7772        58  POPC      H16Z           22.4529642084       -6.9512029870       -0.5618415483  MEMB      58              0.0000000000
      7773        59  POPC      N              19.5637037322      -11.5336915634      -20.4149324570  MEMB      59              0.0000000000
      7774        59  POPC      C12            20.2315294567      -12.8382999334      -20.5537098483  MEMB      59              0.0000000000
      7775        59  POPC      H12A           21.2353366269      -12.5973947641      -20.8710989453  MEMB      59              0.0000000000
      7776        59  POPC      H12B           19.7229729834      -13.2736039926      -21.4012242802  MEMB      59              0.0000000000
      7777        59  POPC      C13            19.4637061811      -10.8896435366      -21.7867776715  MEMB      59              0.0000000000
      7778        59  POPC      H13A           18.7630118751      -10.0723024188      -21.8726886811  MEMB      59              0.0000000000
      7779        59  POPC      H13B           20.4309913896      -10.4251909981      -21.9094279476  MEMB      59              0.0000000000
      7780        59  POPC      H13C           19.2553994552      -11.6901045274      -22.4812344835  MEMB      59              0.0000000000
      7781        59  POPC      C14            18.2452823948      -11.7431585755      -19.8625352649  MEMB      59              0.0000000000
      7782        59  POPC      H14A           17.7136063872      -10.8244257978      -19.6634105649  MEMB      59              0.0000000000
      7783        59  POPC      H14B           17.7685166100      -12.4414974673      -20.5344111030  MEMB      59              0.0000000000
      7784        59  POPC      H14C           18.4148833345      -12.2190826987      -18.9080030106  MEMB      59              0.0000000000
      7785        59  POPC      C15            20.2902458285      -10.6939013012      -19.4649445039  MEMB      59              0.0000000000
      7786        59  POPC      H15A           20.3990850587      -11.2191278979      -18.5275592405  MEMB      59              0.0000000000
      7787        59  POPC      H15B           19.8481813224       -9.7215316447      -19.3053332043  MEMB      59              0.0000000000
      7788        59  POPC      H15C           21.3112676440      -10.4963350228      -19.7562896153  MEMB      59              0.0000000000
      7789        59  POPC      C11            20.2358829336      -13.9360172482      -19.4042286324  MEMB      59              0.0000000000
      7790        59  POPC      H11A           20.4982879483      -14.8734361575      -19.9396821145  MEMB      59              0.0000000000
      7791        59  POPC      H11B           19.1729333441      -14.0853823223      -19.1176116314  MEMB      59              0.0000000000
      7792        59  POPC      P              21.7694737870      -14.8892172529      -17.5482092843  MEMB      59              0.0000000000
      7793        59  POPC      O13            23.0641808475      -15.1066780667      -18.1945171432  MEMB      59              0.0000000000
      7794        59  POPC      O14            20.8691579499      -16.0686281899      -17.4151872431  MEMB      59              0.0000000000
      7795        59  POPC      O12            20.9733000109      -13.7719603603      -18.2298075940  MEMB      59              0.0000000000
      7796        59  POPC      O11            22.0153673770      -14.2373691757      -16.1251503536  MEMB      59              0.0000000000
      7797        59  POPC      C1             22.7984905811      -13.0439399711      -16.0229335781  MEMB      59              0.0000000000
      7798        59  POPC      HA             22.9333191779      -12.5384366754      -17.0030399602  MEMB      59              0.0000000000
      7799        59  POPC      HB             23.7862406682      -13.3843652421      -15.6450693085  MEMB      59              0.0000000000
      7800        59  POPC      C2             22.1136852748      -11.9868646304      -15.1056787877  MEMB      59              0.0000000000
      7801        59  POPC      HS             22.7955309110      -11.1181301086      -15.2269535090  MEMB      59              0.0000000000
      7802        59  POPC      O21            22.0429119400      -12.4511813862      -13.7372263148  MEMB      59              0.0000000000
      7803        59  POPC      C21            21.8587411603      -11.4966240966      -12.8109655425  MEMB      59              0.0000000000
      7804        59  POPC      O22            21.6806167171      -10.3398561037      -13.0378757714  MEMB      59              0.0000000000
      7805        59  POPC      C22            21.9880441917      -12.0950877168      -11.4082440041  MEMB      59              0.0000000000
      7806        59  POPC      H2R            21.9606829829      -13.2033637220      -11.4810217632  MEMB      59              0.0000000000
      7807        59  POPC      H2S            21.1109457490      -11.6307637447      -10.9088219377  MEMB      59              0.0000000000
      7808        59  POPC      C3             20.6449045316      -11.6936086284      -15.5414340059  MEMB      59              0.0000000000
      7809        59  POPC      HX             20.8555856226      -11.4998983738      -16.6149378430  MEMB      59              0.0000000000
      7810        59  POPC      HY             20.3042298631      -10.7419285286      -15.0803839025  MEMB      59              0.0000000000
      7811        59  POPC      O31            19.7811181049      -12.8270671544      -15.3352220424  MEMB      59              0.0000000000
      7812        59  POPC      C31            18.5194066669      -12.6434869036      -15.7684504593  MEMB      59              0.0000000000
      7813        59  POPC      O32            18.0204041986      -11.6007488550      -16.2642983982  MEMB      59              0.0000000000
      7814        59  POPC      C32            17.7123945220      -13.8786823479      -15.5065334160  MEMB      59              0.0000000000
      7815        59  POPC      H2X            18.3508724669      -14.7860147329      -15.5649705046  MEMB      59              0.0000000000
      7816        59  POPC      H2Y            17.0132992002      -14.0154001434      -16.3591146352  MEMB      59              0.0000000000
      7817        59  POPC      C23            23.2411955921      -11.5027235104      -10.7381360663  MEMB      59              0.0000000000
      7818        59  POPC      H3R            23.1966450168      -10.3948331664      -10.6680299721  MEMB      59              0.0000000000
      7819        59  POPC      H3S            24.1180935742      -11.7872553765      -11.3581466778  MEMB      59              0.0000000000
      7820        59  POPC      C24            23.4040247310      -12.0043247917       -9.3626842397  MEMB      59              0.0000000000
      7821        59  POPC      H4R            22.4976729131      -11.9190564305       -8.7258354172  MEMB      59              0.0000000000
      7822        59  POPC      H4S            24.1349231229      -11.2900731196       -8.9268489503  MEMB      59              0.0000000000
      7823        59  POPC      C25            23.9794742028      -13.3723766060       -9.1550084112  MEMB      59              0.0000000000
      7824        59  POPC      H5R            24.7376982048      -13.3133939429       -8.3451080818  MEMB      59              0.0000000000
      7825        59  POPC      H5S            24.4816975601      -13.8556965832      -10.0201636415  MEMB      59              0.0000000000
      7826        59  POPC      C26            22.9257546949      -14.5181472896       -8.8131792609  MEMB      59              0.0000000000
      7827        59  POPC      H6R            22.3613160632      -14.5292187899       -9.7700529176  MEMB      59              0.0000000000
      7828        59  POPC      H6S            22.2610681259      -14.1136256135       -8.0201633340  MEMB      59              0.0000000000
      7829        59  POPC      C27            23.5081705431      -15.8889261139       -8.4256164524  MEMB      59              0.0000000000
      7830        59  POPC      H7R            24.0950835142      -15.6906196898       -7.5033753523  MEMB      59              0.0000000000
      7831        59  POPC      H7S            24.2863953939      -16.2078727853       -9.1515367974  MEMB      59              0.0000000000
      7832        59  POPC      C28            22.5532782967      -17.0870035380       -8.0762327975  MEMB      59              0.0000000000
      7833        59  POPC      H8R            23.1865066029      -17.8056090618       -7.5132504983  MEMB      59              0.0000000000
      7834        59  POPC      H8S            22.3667488982      -17.5206178663       -9.0819696342  MEMB      59              0.0000000000
      7835        59  POPC      C29            21.2827750107      -16.6579179324       -7.5263672612  MEMB      59              0.0000000000
      7836        59  POPC      H91            20.7402231031      -15.9833130321       -8.2050016425  MEMB      59              0.0000000000
      7837        59  POPC      C210           20.6784391760      -17.0007598277       -6.3347304901  MEMB      59              0.0000000000
      7838        59  POPC      H101           19.6046993647      -16.7636793515       -6.3051438783  MEMB      59              0.0000000000
      7839        59  POPC      C211           21.1733605589      -17.9759751855       -5.2999666553  MEMB      59              0.0000000000
      7840        59  POPC      H11R           22.0637761410      -18.5611962868       -5.6146055153  MEMB      59              0.0000000000
      7841        59  POPC      H11S           20.4937955980      -18.7893482183       -4.9668947041  MEMB      59              0.0000000000
      7842        59  POPC      C212           21.6339469381      -17.2397080506       -4.0082569834  MEMB      59              0.0000000000
      7843        59  POPC      H12R           22.3790882950      -16.4272654224       -4.1461785404  MEMB      59              0.0000000000
      7844        59  POPC      H12S           22.0616525083      -18.0150313000       -3.3372404440  MEMB      59              0.0000000000
      7845        59  POPC      C213           20.4938540751      -16.5096574984       -3.3037120317  MEMB      59              0.0000000000
      7846        59  POPC      H13R           19.6490533730      -17.2229216791       -3.1946840630  MEMB      59              0.0000000000
      7847        59  POPC      H13S           20.0950421858      -15.7839963262       -4.0444458860  MEMB      59              0.0000000000
      7848        59  POPC      C214           20.7970241455      -15.8095012088       -1.9215913224  MEMB      59              0.0000000000
      7849        59  POPC      H14R           20.1104339836      -14.9546294185       -1.7424008854  MEMB      59              0.0000000000
      7850        59  POPC      H14S           21.7539695475      -15.2499544165       -1.9956433997  MEMB      59              0.0000000000
      7851        59  POPC      C215           20.7530889734      -16.6895163055       -0.7623185644  MEMB      59              0.0000000000
      7852        59  POPC      H15R           21.5799042942      -17.4251685918       -0.8598542124  MEMB      59              0.0000000000
      7853        59  POPC      H15S           19.7676877972      -17.1761936450       -0.5996824452  MEMB      59              0.0000000000
      7854        59  POPC      C216           21.0424915586      -16.0549995296        0.6459244431  MEMB      59              0.0000000000
      7855        59  POPC      H16R           22.0812020703      -15.6639968521        0.6961098674  MEMB      59              0.0000000000
      7856        59  POPC      H16S           20.9397879198      -16.9471353648        1.3000406910  MEMB      59              0.0000000000
      7857        59  POPC      C217           19.9734336780      -15.0350339959        1.0863717665  MEMB      59              0.0000000000
      7858        59  POPC      H17R           18.9981133907      -15.5670584315        1.0909293047  MEMB      59              0.0000000000
      7859        59  POPC      H17S           19.9994073593      -14.2118341182        0.3407255722  MEMB      59              0.0000000000
      7860        59  POPC      C218           20.0727470464      -14.4699364824        2.5301896756  MEMB      59              0.0000000000
      7861        59  POPC      H18R           21.0422925050      -13.9419878695        2.6549813128  MEMB      59              0.0000000000
      7862        59  POPC      H18S           20.0436169107      -15.2446648704        3.3259711842  MEMB      59              0.0000000000
      7863        59  POPC      H18T           19.3607960166      -13.6279326699        2.6661174773  MEMB      59              0.0000000000
      7864        59  POPC      C33            16.9349275051      -13.7283552689      -14.1735800440  MEMB      59              0.0000000000
      7865        59  POPC      H3X            16.5054114651      -14.6907976959      -13.8220956179  MEMB      59              0.0000000000
      7866        59  POPC      H3Y            16.1767540462      -12.9196114189      -14.2472512135  MEMB      59              0.0000000000
      7867        59  POPC      C34            17.6762303032      -13.4610200200      -12.8433650737  MEMB      59              0.0000000000
      7868        59  POPC      H4X            18.4744746204      -12.8069366149      -13.2548283023  MEMB      59              0.0000000000
      7869        59  POPC      H4Y            18.1500073423      -14.4581750241      -12.7187127545  MEMB      59              0.0000000000
      7870        59  POPC      C35            16.9307347193      -13.0568084759      -11.6721784643  MEMB      59              0.0000000000
      7871        59  POPC      H5X            16.1034873610      -13.7981512342      -11.6523331874  MEMB      59              0.0000000000
      7872        59  POPC      H5Y            16.5070209921      -12.0355451527      -11.7808480186  MEMB      59              0.0000000000
      7873        59  POPC      C36            17.7237805663      -13.0322263339      -10.4069708237  MEMB      59              0.0000000000
      7874        59  POPC      H6X            18.5898219683      -12.3366534328      -10.4286813830  MEMB      59              0.0000000000
      7875        59  POPC      H6Y            18.1812784973      -14.0399978862      -10.3099494672  MEMB      59              0.0000000000
      7876        59  POPC      C37            16.8979648267      -12.7216430929       -9.1480695493  MEMB      59              0.0000000000
      7877        59  POPC      H7X            15.8756867831      -13.1435836985       -9.2540643165  MEMB      59              0.0000000000
      7878        59  POPC      H7Y            16.6358541926      -11.6420369094       -9.1564253886  MEMB      59              0.0000000000
      7879        59  POPC      C38            17.6305952532      -13.1982073332       -7.8897257284  MEMB      59              0.0000000000
      7880        59  POPC      H8X            18.1077557696      -14.2009079636       -7.8546530703  MEMB      59              0.0000000000
      7881        59  POPC      H8Y            16.8320870490      -13.3430695967       -7.1309631012  MEMB      59              0.0000000000
      7882        59  POPC      C39            18.7658977275      -12.2354343364       -7.4475160719  MEMB      59              0.0000000000
      7883        59  POPC      H9X            18.5932014170      -11.1663696182       -7.1993278847  MEMB      59              0.0000000000
      7884        59  POPC      H9Y            19.5443260193      -12.4977796980       -8.1955432208  MEMB      59              0.0000000000
      7885        59  POPC      C310           19.4202270620      -12.8359966753       -6.1641760452  MEMB      59              0.0000000000
      7886        59  POPC      H10X           19.6253074942      -13.9273375569       -6.1289905648  MEMB      59              0.0000000000
      7887        59  POPC      H10Y           18.8080271864      -12.5575981058       -5.2798533850  MEMB      59              0.0000000000
      7888        59  POPC      C311           20.8424313421      -12.1807653720       -5.8604300614  MEMB      59              0.0000000000
      7889        59  POPC      H11X           20.7483685241      -11.0777757835       -5.9547005633  MEMB      59              0.0000000000
      7890        59  POPC      H11Y           21.4202052344      -12.5210647955       -6.7462600232  MEMB      59              0.0000000000
      7891        59  POPC      C312           21.4744999791      -12.4939597460       -4.5738114110  MEMB      59              0.0000000000
      7892        59  POPC      H12X           21.6230514423      -13.5941339333       -4.6170565289  MEMB      59              0.0000000000
      7893        59  POPC      H12Y           20.9865241531      -12.1641585232       -3.6317757077  MEMB      59              0.0000000000
      7894        59  POPC      C313           22.8648450134      -11.8563508633       -4.3533755624  MEMB      59              0.0000000000
      7895        59  POPC      H13X           23.1104479991      -11.7040382534       -3.2806218615  MEMB      59              0.0000000000
      7896        59  POPC      H13Y           22.8855226790      -10.8407727641       -4.8033701073  MEMB      59              0.0000000000
      7897        59  POPC      C314           24.0458339318      -12.5649262364       -5.0640561178  MEMB      59              0.0000000000
      7898        59  POPC      H14X           23.7652229337      -12.6511818665       -6.1355680745  MEMB      59              0.0000000000
      7899        59  POPC      H14Y           24.1550107299      -13.5331022579       -4.5301676324  MEMB      59              0.0000000000
      7900        59  POPC      C315           25.3410779946      -11.7603076055       -5.1003367637  MEMB      59              0.0000000000
      7901        59  POPC      H15X           25.2957863548      -10.8885962836       -5.7876425273  MEMB      59              0.0000000000
      7902        59  POPC      H15Y           26.0636900265      -12.3883457760       -5.6640048828  MEMB      59              0.0000000000
      7903        59  POPC      C316           25.9919370565      -11.3982608012       -3.7375613651  MEMB      59              0.0000000000
      7904        59  POPC      H16X           26.2939125231      -12.3855092401       -3.3271078042  MEMB      59              0.0000000000
      7905        59  POPC      H16Y           25.2330862672      -10.8967799205       -3.0996088776  MEMB      59              0.0000000000
      7906        59  POPC      H16Z           26.8386789020      -10.7123539171       -3.9540810259  MEMB      59              0.0000000000
      7907        60  POPC      N              11.2290979825       25.3150180353      -20.8664174852  MEMB      60              0.0000000000
      7908        60  POPC      C12            10.4519703025       26.3654054077      -20.1261699258  MEMB      60              0.0000000000
      7909        60  POPC      H12A            9.5372894390       26.6943984611      -20.5968317415  MEMB      60              0.0000000000
      7910        60  POPC      H12B           11.1717683319       27.1694543452      -20.0837878644  MEMB      60              0.0000000000
      7911        60  POPC      C13            11.6680834906       25.9900408353      -22.1306948929  MEMB      60              0.0000000000
      7912        60  POPC      H13A           12.4659521262       26.6682041607      -21.8663086157  MEMB      60              0.0000000000
      7913        60  POPC      H13B           12.0541445505       25.1796540526      -22.7312196803  MEMB      60              0.0000000000
      7914        60  POPC      H13C           10.8194463200       26.4544340724      -22.6108551725  MEMB      60              0.0000000000
      7915        60  POPC      C14            12.4793891893       24.8851493631      -20.0897233556  MEMB      60              0.0000000000
      7916        60  POPC      H14A           13.0886629175       25.7765511467      -20.1139743151  MEMB      60              0.0000000000
      7917        60  POPC      H14B           12.1750799104       24.4986651404      -19.1282526597  MEMB      60              0.0000000000
      7918        60  POPC      H14C           13.0491950818       24.0913840527      -20.5497864782  MEMB      60              0.0000000000
      7919        60  POPC      C15            10.3737877908       24.1656859214      -21.2788691306  MEMB      60              0.0000000000
      7920        60  POPC      H15A            9.8254189507       23.8214884012      -20.4144505179  MEMB      60              0.0000000000
      7921        60  POPC      H15B           11.0704052909       23.4094443657      -21.6093577985  MEMB      60              0.0000000000
      7922        60  POPC      H15C            9.6138195091       24.3977821455      -22.0102920718  MEMB      60              0.0000000000
      7923        60  POPC      C11             9.9499612091       26.1658201642      -18.6942244247  MEMB      60              0.0000000000
      7924        60  POPC      H11A            9.2061024708       26.9906935011      -18.6701607819  MEMB      60              0.0000000000
      7925        60  POPC      H11B           10.7227033520       26.4402161974      -17.9446262794  MEMB      60              0.0000000000
      7926        60  POPC      P               9.7681669985       24.0805585936      -17.1856025711  MEMB      60              0.0000000000
      7927        60  POPC      O13            11.2076439064       23.9118934145      -17.1684659617  MEMB      60              0.0000000000
      7928        60  POPC      O14             8.8486585788       22.9024386922      -17.0191289749  MEMB      60              0.0000000000
      7929        60  POPC      O12             9.2404733668       24.8996142093      -18.4348268670  MEMB      60              0.0000000000
      7930        60  POPC      O11             9.5153327805       25.1423861480      -16.0058764076  MEMB      60              0.0000000000
      7931        60  POPC      C1              8.2283124770       25.6008416131      -15.6801742674  MEMB      60              0.0000000000
      7932        60  POPC      HA              7.5535394588       24.7183478224      -15.6945623946  MEMB      60              0.0000000000
      7933        60  POPC      HB              7.8597603330       26.4898485854      -16.2352929584  MEMB      60              0.0000000000
      7934        60  POPC      C2              8.0968937849       25.9560611498      -14.1588378720  MEMB      60              0.0000000000
      7935        60  POPC      HS              7.3181426626       26.7306096995      -13.9916789833  MEMB      60              0.0000000000
      7936        60  POPC      O21             9.3130726030       26.5891067579      -13.7680663949  MEMB      60              0.0000000000
      7937        60  POPC      C21             9.6066393301       27.7671949704      -14.2436513001  MEMB      60              0.0000000000
      7938        60  POPC      O22             8.8863415930       28.5339378719      -14.8438246793  MEMB      60              0.0000000000
      7939        60  POPC      C22            11.0457499016       27.9763116160      -13.9770627448  MEMB      60              0.0000000000
      7940        60  POPC      H2R            11.3829150916       27.2197125972      -13.2366583649  MEMB      60              0.0000000000
      7941        60  POPC      H2S            11.3243708938       29.0021229131      -13.6539486187  MEMB      60              0.0000000000
      7942        60  POPC      C3              7.8126769127       24.7677898082      -13.1924405428  MEMB      60              0.0000000000
      7943        60  POPC      HX              8.3981298545       23.8514862761      -13.4203735291  MEMB      60              0.0000000000
      7944        60  POPC      HY              6.7972245130       24.3598283201      -13.3841295145  MEMB      60              0.0000000000
      7945        60  POPC      O31             8.1078717225       25.0496656361      -11.8652891427  MEMB      60              0.0000000000
      7946        60  POPC      C31             7.1741673019       25.7905024019      -11.1746899062  MEMB      60              0.0000000000
      7947        60  POPC      O32             6.2546204281       26.3827461692      -11.7406475397  MEMB      60              0.0000000000
      7948        60  POPC      C32             7.5538184525       25.8733365839       -9.6862231959  MEMB      60              0.0000000000
      7949        60  POPC      H2X             7.4881972312       26.9662714605       -9.4977881620  MEMB      60              0.0000000000
      7950        60  POPC      H2Y             8.6061970696       25.5412724339       -9.5575618793  MEMB      60              0.0000000000
      7951        60  POPC      C23            11.7740285003       27.8479670077      -15.4199919169  MEMB      60              0.0000000000
      7952        60  POPC      H3R            11.2818781539       28.5559971597      -16.1205648311  MEMB      60              0.0000000000
      7953        60  POPC      H3S            11.5646073788       26.8438135614      -15.8467700924  MEMB      60              0.0000000000
      7954        60  POPC      C24            13.2926506888       27.9666991846      -15.3027735645  MEMB      60              0.0000000000
      7955        60  POPC      H4R            13.5847628889       28.9248920054      -14.8222966167  MEMB      60              0.0000000000
      7956        60  POPC      H4S            13.8633085216       27.9473785728      -16.2558198610  MEMB      60              0.0000000000
      7957        60  POPC      C25            13.8226810526       26.8155460458      -14.4455437155  MEMB      60              0.0000000000
      7958        60  POPC      H5R            13.5161439271       26.8566032279      -13.3784584091  MEMB      60              0.0000000000
      7959        60  POPC      H5S            14.9216759564       26.9686726811      -14.5010730758  MEMB      60              0.0000000000
      7960        60  POPC      C26            13.5655955501       25.4648805667      -14.9641957483  MEMB      60              0.0000000000
      7961        60  POPC      H6R            13.9723539071       25.4044082858      -15.9962867684  MEMB      60              0.0000000000
      7962        60  POPC      H6S            12.4847364697       25.2171063176      -14.8958376293  MEMB      60              0.0000000000
      7963        60  POPC      C27            14.2408960451       24.3425831996      -14.1107202723  MEMB      60              0.0000000000
      7964        60  POPC      H7R            15.3068298903       24.4432358552      -14.4073268575  MEMB      60              0.0000000000
      7965        60  POPC      H7S            13.9791492838       23.3022129758      -14.3995788100  MEMB      60              0.0000000000
      7966        60  POPC      C28            14.1006875774       24.4612446616      -12.5600299527  MEMB      60              0.0000000000
      7967        60  POPC      H8R            14.7502965625       25.3402934915      -12.3610256157  MEMB      60              0.0000000000
      7968        60  POPC      H8S            14.7061112282       23.6102918751      -12.1810007263  MEMB      60              0.0000000000
      7969        60  POPC      C29            12.6955507660       24.7133626399      -12.1155391871  MEMB      60              0.0000000000
      7970        60  POPC      H91            11.9273883086       24.3401083836      -12.8087981608  MEMB      60              0.0000000000
      7971        60  POPC      C210           12.4487910485       25.3804832169      -10.9565280866  MEMB      60              0.0000000000
      7972        60  POPC      H101           11.4354845522       25.4233387069      -10.5306494703  MEMB      60              0.0000000000
      7973        60  POPC      C211           13.4899607958       25.8977582786       -9.9992955798  MEMB      60              0.0000000000
      7974        60  POPC      H11R           13.7208597995       26.9365839193      -10.3184315967  MEMB      60              0.0000000000
      7975        60  POPC      H11S           14.3833406833       25.2511793103       -9.8646510761  MEMB      60              0.0000000000
      7976        60  POPC      C212           12.9840261451       26.0480010875       -8.4895387478  MEMB      60              0.0000000000
      7977        60  POPC      H12R           12.1963585101       26.7884172485       -8.7458291554  MEMB      60              0.0000000000
      7978        60  POPC      H12S           13.8458455741       26.4029196158       -7.8848728651  MEMB      60              0.0000000000
      7979        60  POPC      C213           12.2248692169       24.9137891107       -7.8285886404  MEMB      60              0.0000000000
      7980        60  POPC      H13R           12.6972827419       23.9403429218       -8.0806777437  MEMB      60              0.0000000000
      7981        60  POPC      H13S           11.1761418351       24.9077460242       -8.1952705358  MEMB      60              0.0000000000
      7982        60  POPC      C214           12.2608736190       24.9817614170       -6.2965497866  MEMB      60              0.0000000000
      7983        60  POPC      H14R           11.7627039082       25.9154045845       -5.9582335800  MEMB      60              0.0000000000
      7984        60  POPC      H14S           13.2816986507       25.0623374840       -5.8655680599  MEMB      60              0.0000000000
      7985        60  POPC      C215           11.4915638263       23.8128904500       -5.6030294953  MEMB      60              0.0000000000
      7986        60  POPC      H15R           11.8505235826       22.8765076054       -6.0812088047  MEMB      60              0.0000000000
      7987        60  POPC      H15S           10.4666805809       24.0706924992       -5.9457734401  MEMB      60              0.0000000000
      7988        60  POPC      C216           11.5031122919       23.6660699339       -4.1045989623  MEMB      60              0.0000000000
      7989        60  POPC      H16R           10.8732972921       22.7651981314       -3.9430932751  MEMB      60              0.0000000000
      7990        60  POPC      H16S           11.1036079404       24.5587379499       -3.5774726681  MEMB      60              0.0000000000
      7991        60  POPC      C217           12.8418020615       23.3266546682       -3.5026991336  MEMB      60              0.0000000000
      7992        60  POPC      H17R           13.2887001417       24.3424648322       -3.5549764497  MEMB      60              0.0000000000
      7993        60  POPC      H17S           13.3701314932       22.5947116922       -4.1503476234  MEMB      60              0.0000000000
      7994        60  POPC      C218           12.7842345339       22.7026854397       -2.0969505267  MEMB      60              0.0000000000
      7995        60  POPC      H18R           12.4386033545       23.4642244868       -1.3655685308  MEMB      60              0.0000000000
      7996        60  POPC      H18S           13.7973394925       22.4569396276       -1.7128303373  MEMB      60              0.0000000000
      7997        60  POPC      H18T           12.1687691297       21.7778942103       -2.1138215034  MEMB      60              0.0000000000
      7998        60  POPC      C33             6.5339690872       25.0845385803       -8.8958027106  MEMB      60              0.0000000000
      7999        60  POPC      H3X             6.8307085575       24.0204577909       -9.0141178222  MEMB      60              0.0000000000
      8000        60  POPC      H3Y             5.5036369843       25.2975296064       -9.2526947149  MEMB      60              0.0000000000
      8001        60  POPC      C34             6.5915227219       25.4243343122       -7.2783328207  MEMB      60              0.0000000000
      8002        60  POPC      H4X             5.6196784259       25.1470815053       -6.8168453905  MEMB      60              0.0000000000
      8003        60  POPC      H4Y             6.8008677437       26.5152531962       -7.2981243383  MEMB      60              0.0000000000
      8004        60  POPC      C35             7.7651035116       24.8135689309       -6.6139104225  MEMB      60              0.0000000000
      8005        60  POPC      H5X             8.6718502561       24.6980980952       -7.2454148843  MEMB      60              0.0000000000
      8006        60  POPC      H5Y             7.6303120427       23.7321385928       -6.3978998190  MEMB      60              0.0000000000
      8007        60  POPC      C36             8.0539156900       25.5143588580       -5.3162907167  MEMB      60              0.0000000000
      8008        60  POPC      H6X             8.9032522921       24.9397242886       -4.8888051746  MEMB      60              0.0000000000
      8009        60  POPC      H6Y             7.3000285560       25.3695676391       -4.5131652171  MEMB      60              0.0000000000
      8010        60  POPC      C37             8.3433245339       26.9953637278       -5.5061925107  MEMB      60              0.0000000000
      8011        60  POPC      H7X             7.4242595427       27.6184995396       -5.4695535501  MEMB      60              0.0000000000
      8012        60  POPC      H7Y             8.7568790933       27.2799408434       -6.4973074118  MEMB      60              0.0000000000
      8013        60  POPC      C38             9.2523659557       27.6196985761       -4.4926217026  MEMB      60              0.0000000000
      8014        60  POPC      H8X             9.6450335756       28.6053023460       -4.8223472141  MEMB      60              0.0000000000
      8015        60  POPC      H8Y            10.1921866917       27.0602261651       -4.2975613445  MEMB      60              0.0000000000
      8016        60  POPC      C39             8.5503843257       27.8764258811       -3.1721372931  MEMB      60              0.0000000000
      8017        60  POPC      H9X             8.0254428240       26.9163176129       -2.9799151642  MEMB      60              0.0000000000
      8018        60  POPC      H9Y             7.6821421156       28.5420316837       -3.3656457442  MEMB      60              0.0000000000
      8019        60  POPC      C310            9.3039041532       28.4338972202       -2.0264022286  MEMB      60              0.0000000000
      8020        60  POPC      H10X            9.6739199536       29.4437123616       -2.3051181613  MEMB      60              0.0000000000
      8021        60  POPC      H10Y           10.2215919562       27.9171379809       -1.6726652394  MEMB      60              0.0000000000
      8022        60  POPC      C311            8.4698362410       28.7198306042       -0.7748922353  MEMB      60              0.0000000000
      8023        60  POPC      H11X            8.0131604021       29.7013885470       -1.0245168406  MEMB      60              0.0000000000
      8024        60  POPC      H11Y            9.0553997581       28.8396336144        0.1616348759  MEMB      60              0.0000000000
      8025        60  POPC      C312            7.2528497575       27.7735877262       -0.5663347086  MEMB      60              0.0000000000
      8026        60  POPC      H12X            6.7348278677       27.8318162039       -1.5474482150  MEMB      60              0.0000000000
      8027        60  POPC      H12Y            6.6534064115       28.2515616607        0.2377372415  MEMB      60              0.0000000000
      8028        60  POPC      C313            7.6878302650       26.3583544595       -0.1252445664  MEMB      60              0.0000000000
      8029        60  POPC      H13X            8.5605870950       26.5617305807        0.5314536308  MEMB      60              0.0000000000
      8030        60  POPC      H13Y            8.1548377277       25.9584249463       -1.0505997481  MEMB      60              0.0000000000
      8031        60  POPC      C314            6.5000140115       25.5278047219        0.4369201846  MEMB      60              0.0000000000
      8032        60  POPC      H14X            6.7889276662       24.4552237809        0.4164253386  MEMB      60              0.0000000000
      8033        60  POPC      H14Y            5.6565323329       25.4988359176       -0.2855896549  MEMB      60              0.0000000000
      8034        60  POPC      C315            5.7745973030       26.1526395313        1.6131347051  MEMB      60              0.0000000000
      8035        60  POPC      H15X            5.2917026393       27.0432386036        1.1571010140  MEMB      60              0.0000000000
      8036        60  POPC      H15Y            6.4999987926       26.4390786941        2.4043784159  MEMB      60              0.0000000000
      8037        60  POPC      C316            4.5288076020       25.4834042797        2.1600551193  MEMB      60              0.0000000000
      8038        60  POPC      H16X            4.8671654806       24.6510869471        2.8135696688  MEMB      60              0.0000000000
      8039        60  POPC      H16Y            3.8055301082       25.1434347623        1.3882952914  MEMB      60              0.0000000000
      8040        60  POPC      H16Z            3.9900704647       26.2443817532        2.7642042430  MEMB      60              0.0000000000
      8041        61  POPC      N             -11.9266302814       23.1350536580      -20.7465867954  MEMB      61              0.0000000000
      8042        61  POPC      C12           -13.0062370141       23.4055114529      -19.5846121224  MEMB      61              0.0000000000
      8043        61  POPC      H12A          -13.6904924082       24.1425888956      -19.9782002038  MEMB      61              0.0000000000
      8044        61  POPC      H12B          -12.4204969416       23.8372208911      -18.7865297291  MEMB      61              0.0000000000
      8045        61  POPC      C13           -10.8138293087       22.2965722838      -20.3088238451  MEMB      61              0.0000000000
      8046        61  POPC      H13A          -10.2375286327       22.0742664054      -21.1947458277  MEMB      61              0.0000000000
      8047        61  POPC      H13B          -10.1828336737       22.6554882600      -19.5091842189  MEMB      61              0.0000000000
      8048        61  POPC      H13C          -11.2866968450       21.3796154669      -19.9894703773  MEMB      61              0.0000000000
      8049        61  POPC      C14           -12.6911081296       22.4567713942      -21.8922344847  MEMB      61              0.0000000000
      8050        61  POPC      H14A          -13.2690302858       21.6849325576      -21.4057461090  MEMB      61              0.0000000000
      8051        61  POPC      H14B          -13.3495677501       23.2317833712      -22.2558101370  MEMB      61              0.0000000000
      8052        61  POPC      H14C          -11.9922778349       22.0895176310      -22.6292289713  MEMB      61              0.0000000000
      8053        61  POPC      C15           -11.3923071330       24.4735851171      -21.2277494882  MEMB      61              0.0000000000
      8054        61  POPC      H15A          -10.7930290274       24.4234844649      -22.1248311268  MEMB      61              0.0000000000
      8055        61  POPC      H15B          -10.7498034483       24.8252322297      -20.4340660896  MEMB      61              0.0000000000
      8056        61  POPC      H15C          -12.2469028343       25.1072448116      -21.4136028107  MEMB      61              0.0000000000
      8057        61  POPC      C11           -13.7796495728       22.2445139411      -18.9244461692  MEMB      61              0.0000000000
      8058        61  POPC      H11A          -14.1878420563       21.5584654459      -19.6971281443  MEMB      61              0.0000000000
      8059        61  POPC      H11B          -14.5644844268       22.8261734096      -18.3952696658  MEMB      61              0.0000000000
      8060        61  POPC      P             -13.4588018753       20.3520625555      -17.2473787647  MEMB      61              0.0000000000
      8061        61  POPC      O13           -14.2052447351       19.4524675339      -18.1536024492  MEMB      61              0.0000000000
      8062        61  POPC      O14           -14.2466252239       20.9169451884      -16.0693485523  MEMB      61              0.0000000000
      8063        61  POPC      O12           -12.9306532152       21.6231487980      -18.0222785419  MEMB      61              0.0000000000
      8064        61  POPC      O11           -12.0377047825       19.7416418365      -16.8229387684  MEMB      61              0.0000000000
      8065        61  POPC      C1            -10.9772046849       19.4846538331      -17.7371964863  MEMB      61              0.0000000000
      8066        61  POPC      HA            -10.9726615388       20.2005980995      -18.5867400328  MEMB      61              0.0000000000
      8067        61  POPC      HB            -11.0337178528       18.4556921635      -18.1523654162  MEMB      61              0.0000000000
      8068        61  POPC      C2             -9.6097215981       19.7277733743      -17.0122159792  MEMB      61              0.0000000000
      8069        61  POPC      HS             -8.8285551909       19.2344393251      -17.6292418501  MEMB      61              0.0000000000
      8070        61  POPC      O21            -9.8093485396       19.0961511362      -15.7394767481  MEMB      61              0.0000000000
      8071        61  POPC      C21            -8.9280912169       19.0979622319      -14.7593205637  MEMB      61              0.0000000000
      8072        61  POPC      O22            -7.8036671158       19.5417476522      -14.7805901865  MEMB      61              0.0000000000
      8073        61  POPC      C22            -9.5124823248       18.4107305122      -13.4502691863  MEMB      61              0.0000000000
      8074        61  POPC      H2R            -8.9545501743       18.9975832234      -12.6895873884  MEMB      61              0.0000000000
      8075        61  POPC      H2S            -9.1292305046       17.3681680271      -13.4278537906  MEMB      61              0.0000000000
      8076        61  POPC      C3             -9.1566896065       21.2082036483      -16.8454663223  MEMB      61              0.0000000000
      8077        61  POPC      HX             -9.1147893479       21.7247320884      -17.8281991562  MEMB      61              0.0000000000
      8078        61  POPC      HY             -8.0930451783       21.2089157429      -16.5245590788  MEMB      61              0.0000000000
      8079        61  POPC      O31            -9.9825478359       21.9302035750      -15.8546444330  MEMB      61              0.0000000000
      8080        61  POPC      C31           -10.6820473454       22.9631738121      -16.2486118485  MEMB      61              0.0000000000
      8081        61  POPC      O32           -10.8247516083       23.2943288747      -17.3850969431  MEMB      61              0.0000000000
      8082        61  POPC      C32           -11.4023528421       23.6041142033      -15.0374648199  MEMB      61              0.0000000000
      8083        61  POPC      H2X           -12.2093181795       24.2325802829      -15.4712368160  MEMB      61              0.0000000000
      8084        61  POPC      H2Y           -10.7729166642       24.2492104448      -14.3878635156  MEMB      61              0.0000000000
      8085        61  POPC      C23           -10.9908152168       18.7275282472      -13.3593852232  MEMB      61              0.0000000000
      8086        61  POPC      H3R           -11.6342746615       18.2751678984      -14.1440196016  MEMB      61              0.0000000000
      8087        61  POPC      H3S           -11.0625400211       19.8356415738      -13.3238679015  MEMB      61              0.0000000000
      8088        61  POPC      C24           -11.5316932387       18.2650709768      -11.9584556930  MEMB      61              0.0000000000
      8089        61  POPC      H4R           -12.2664439709       18.9659914270      -11.5077088148  MEMB      61              0.0000000000
      8090        61  POPC      H4S           -10.7029569154       18.2628999093      -11.2185150084  MEMB      61              0.0000000000
      8091        61  POPC      C25           -12.2076511131       16.9028240615      -11.9779515899  MEMB      61              0.0000000000
      8092        61  POPC      H5R           -11.6646661189       16.1851649378      -12.6294528727  MEMB      61              0.0000000000
      8093        61  POPC      H5S           -13.2446505034       17.0254893528      -12.3573018089  MEMB      61              0.0000000000
      8094        61  POPC      C26           -12.3904585291       16.1375606006      -10.6152037987  MEMB      61              0.0000000000
      8095        61  POPC      H6R           -11.4632058674       16.2134893714      -10.0079485673  MEMB      61              0.0000000000
      8096        61  POPC      H6S           -12.6139668966       15.0577820568      -10.7510095571  MEMB      61              0.0000000000
      8097        61  POPC      C27           -13.5678642741       16.5024470216       -9.7214494027  MEMB      61              0.0000000000
      8098        61  POPC      H7R           -14.4675929575       16.1298662600      -10.2562320968  MEMB      61              0.0000000000
      8099        61  POPC      H7S           -13.5139505560       17.6014266801       -9.5676380967  MEMB      61              0.0000000000
      8100        61  POPC      C28           -13.6203580504       15.8699308825       -8.3380768432  MEMB      61              0.0000000000
      8101        61  POPC      H8R           -13.6509652694       14.7666469318       -8.4651523464  MEMB      61              0.0000000000
      8102        61  POPC      H8S           -14.5784348892       16.2966446127       -7.9715726120  MEMB      61              0.0000000000
      8103        61  POPC      C29           -12.5825676078       16.3866234533       -7.3315085243  MEMB      61              0.0000000000
      8104        61  POPC      H91           -11.5861007598       16.6154807852       -7.7373137922  MEMB      61              0.0000000000
      8105        61  POPC      C210          -12.7709809535       16.7033471579       -6.0616474179  MEMB      61              0.0000000000
      8106        61  POPC      H101          -11.9568072438       17.1081726513       -5.4425850415  MEMB      61              0.0000000000
      8107        61  POPC      C211          -14.1102299115       16.5873167150       -5.3019204116  MEMB      61              0.0000000000
      8108        61  POPC      H11R          -13.7218471150       15.9595365029       -4.4716354773  MEMB      61              0.0000000000
      8109        61  POPC      H11S          -14.8777633575       15.9813475243       -5.8291911822  MEMB      61              0.0000000000
      8110        61  POPC      C212          -14.7772971686       17.8298998680       -4.8534286165  MEMB      61              0.0000000000
      8111        61  POPC      H12R          -14.2622699412       18.2843625377       -3.9801978657  MEMB      61              0.0000000000
      8112        61  POPC      H12S          -15.7318531764       17.5354410951       -4.3671800552  MEMB      61              0.0000000000
      8113        61  POPC      C213          -15.1897842459       18.8618528289       -5.8707578390  MEMB      61              0.0000000000
      8114        61  POPC      H13R          -15.9095123485       18.4104981135       -6.5867122610  MEMB      61              0.0000000000
      8115        61  POPC      H13S          -14.2631558230       19.0827778573       -6.4424852524  MEMB      61              0.0000000000
      8116        61  POPC      C214          -15.7262919958       20.1637211876       -5.2824899161  MEMB      61              0.0000000000
      8117        61  POPC      H14R          -16.5776297433       20.0482578525       -4.5780649785  MEMB      61              0.0000000000
      8118        61  POPC      H14S          -16.1484706421       20.8376089772       -6.0583518249  MEMB      61              0.0000000000
      8119        61  POPC      C215          -14.6738768372       21.0059743102       -4.5897728660  MEMB      61              0.0000000000
      8120        61  POPC      H15R          -13.8957074076       21.0690441280       -5.3802125972  MEMB      61              0.0000000000
      8121        61  POPC      H15S          -14.2669738535       20.5211774062       -3.6766883899  MEMB      61              0.0000000000
      8122        61  POPC      C216          -15.1890492011       22.3830930095       -4.1372103070  MEMB      61              0.0000000000
      8123        61  POPC      H16R          -15.7902804170       22.7532840579       -4.9949984951  MEMB      61              0.0000000000
      8124        61  POPC      H16S          -14.3071778701       23.0576945869       -4.0980161105  MEMB      61              0.0000000000
      8125        61  POPC      C217          -15.9095117015       22.2399392160       -2.8510054942  MEMB      61              0.0000000000
      8126        61  POPC      H17R          -16.5230309088       21.3146172021       -2.8098447882  MEMB      61              0.0000000000
      8127        61  POPC      H17S          -16.6567208951       23.0516182337       -2.7199456057  MEMB      61              0.0000000000
      8128        61  POPC      C218          -14.9949949497       22.2420000025       -1.6109800737  MEMB      61              0.0000000000
      8129        61  POPC      H18R          -14.6358095823       23.2828091611       -1.4625773842  MEMB      61              0.0000000000
      8130        61  POPC      H18S          -14.1723593957       21.4971227370       -1.5585470004  MEMB      61              0.0000000000
      8131        61  POPC      H18T          -15.7023525098       22.0107858375       -0.7860522693  MEMB      61              0.0000000000
      8132        61  POPC      C33           -11.9305458440       22.5336290972      -14.0730273200  MEMB      61              0.0000000000
      8133        61  POPC      H3X           -10.9997384290       22.0658266335      -13.6869187624  MEMB      61              0.0000000000
      8134        61  POPC      H3Y           -12.6005612317       21.7870111767      -14.5504810822  MEMB      61              0.0000000000
      8135        61  POPC      C34           -12.6676030956       23.1736775061      -12.8186464593  MEMB      61              0.0000000000
      8136        61  POPC      H4X           -13.4030950029       23.9019019159      -13.2224556359  MEMB      61              0.0000000000
      8137        61  POPC      H4Y           -11.8193500904       23.6103799168      -12.2493667952  MEMB      61              0.0000000000
      8138        61  POPC      C35           -13.4533257188       22.1087778339      -12.0096323348  MEMB      61              0.0000000000
      8139        61  POPC      H5X           -12.6964025300       21.3230224583      -11.7999262620  MEMB      61              0.0000000000
      8140        61  POPC      H5Y           -14.2816842926       21.7369986640      -12.6498847956  MEMB      61              0.0000000000
      8141        61  POPC      C36           -14.0279494309       22.7195858722      -10.6662345014  MEMB      61              0.0000000000
      8142        61  POPC      H6X           -14.8433060817       23.3875871113      -11.0173589116  MEMB      61              0.0000000000
      8143        61  POPC      H6Y           -13.2080605529       23.2853761208      -10.1743147509  MEMB      61              0.0000000000
      8144        61  POPC      C37           -14.4215296435       21.7068537395       -9.6144263142  MEMB      61              0.0000000000
      8145        61  POPC      H7X           -15.3150666804       21.1141641828       -9.9053415273  MEMB      61              0.0000000000
      8146        61  POPC      H7Y           -14.6859937267       22.1148343429       -8.6154613586  MEMB      61              0.0000000000
      8147        61  POPC      C38           -13.3706867259       20.6628658452       -9.2490310046  MEMB      61              0.0000000000
      8148        61  POPC      H8X           -13.0538449524       20.1002959858      -10.1531591741  MEMB      61              0.0000000000
      8149        61  POPC      H8Y           -13.9237615423       19.9341921807       -8.6185835893  MEMB      61              0.0000000000
      8150        61  POPC      C39           -12.1411789099       21.0709408598       -8.4628332866  MEMB      61              0.0000000000
      8151        61  POPC      H9X           -12.5150989815       21.4350933181       -7.4820695937  MEMB      61              0.0000000000
      8152        61  POPC      H9Y           -11.4664223738       21.8208693808       -8.9282703735  MEMB      61              0.0000000000
      8153        61  POPC      C310          -11.4521878960       19.7312059636       -8.2712164313  MEMB      61              0.0000000000
      8154        61  POPC      H10X          -11.2151864684       19.2101500799       -9.2233990217  MEMB      61              0.0000000000
      8155        61  POPC      H10Y          -12.1369708979       18.9654507630       -7.8481180571  MEMB      61              0.0000000000
      8156        61  POPC      C311          -10.0635677222       19.9474999100       -7.5069216789  MEMB      61              0.0000000000
      8157        61  POPC      H11X           -9.4207542842       20.4464303319       -8.2633474301  MEMB      61              0.0000000000
      8158        61  POPC      H11Y           -9.5314055819       18.9875378127       -7.3348829539  MEMB      61              0.0000000000
      8159        61  POPC      C312          -10.0100293815       20.8613145872       -6.2685881925  MEMB      61              0.0000000000
      8160        61  POPC      H12X          -10.7162586485       20.4727573755       -5.5040070240  MEMB      61              0.0000000000
      8161        61  POPC      H12Y          -10.3528645343       21.8497858463       -6.6423669770  MEMB      61              0.0000000000
      8162        61  POPC      C313           -8.5469392597       21.0796194589       -5.6657178658  MEMB      61              0.0000000000
      8163        61  POPC      H13X           -7.8439451030       21.7960648096       -6.1419807447  MEMB      61              0.0000000000
      8164        61  POPC      H13Y           -8.1315664539       20.0617803590       -5.5051262031  MEMB      61              0.0000000000
      8165        61  POPC      C314           -8.7014013011       21.6897744340       -4.2513254899  MEMB      61              0.0000000000
      8166        61  POPC      H14X           -9.6115262801       22.3240418690       -4.3121400875  MEMB      61              0.0000000000
      8167        61  POPC      H14Y           -7.8128757306       22.3502009236       -4.1581600771  MEMB      61              0.0000000000
      8168        61  POPC      C315           -8.6929880761       20.7317267734       -3.0224274639  MEMB      61              0.0000000000
      8169        61  POPC      H15X           -7.7491224051       20.1459320954       -3.0055983995  MEMB      61              0.0000000000
      8170        61  POPC      H15Y           -9.5026124285       19.9934855402       -3.2063544213  MEMB      61              0.0000000000
      8171        61  POPC      C316           -8.9009590079       21.2582777355       -1.5500130072  MEMB      61              0.0000000000
      8172        61  POPC      H16X           -8.1647742765       22.0645759260       -1.3444978719  MEMB      61              0.0000000000
      8173        61  POPC      H16Y           -8.9553290871       20.3532096976       -0.9079728764  MEMB      61              0.0000000000
      8174        61  POPC      H16Z           -9.9293307688       21.6774495722       -1.5173419708  MEMB      61              0.0000000000
      8175        62  POPC      N             -18.7936257687      -20.4251730891      -20.8566136306  MEMB      62              0.0000000000
      8176        62  POPC      C12           -18.2052875028      -20.1896320237      -19.4473527629  MEMB      62              0.0000000000
      8177        62  POPC      H12A          -17.8329481095      -19.1934438555      -19.6354288823  MEMB      62              0.0000000000
      8178        62  POPC      H12B          -17.3735842304      -20.8588782048      -19.2837103944  MEMB      62              0.0000000000
      8179        62  POPC      C13           -19.3043541046      -21.8482552943      -20.8028578539  MEMB      62              0.0000000000
      8180        62  POPC      H13A          -19.6759598638      -22.0676378410      -21.7928984447  MEMB      62              0.0000000000
      8181        62  POPC      H13B          -18.5705501915      -22.6399929289      -20.7699414644  MEMB      62              0.0000000000
      8182        62  POPC      H13C          -20.0362254172      -22.0435413332      -20.0330347123  MEMB      62              0.0000000000
      8183        62  POPC      C14           -19.8869361608      -19.4861121203      -21.2681809318  MEMB      62              0.0000000000
      8184        62  POPC      H14A          -20.5624489659      -19.5480324242      -20.4277949679  MEMB      62              0.0000000000
      8185        62  POPC      H14B          -19.4207932848      -18.5118888925      -21.2680030713  MEMB      62              0.0000000000
      8186        62  POPC      H14C          -20.2923551682      -19.7971990695      -22.2196325412  MEMB      62              0.0000000000
      8187        62  POPC      C15           -17.6822211782      -20.2261488751      -21.8812708432  MEMB      62              0.0000000000
      8188        62  POPC      H15A          -17.9294853064      -19.2741850335      -22.3273934036  MEMB      62              0.0000000000
      8189        62  POPC      H15B          -17.5933864663      -21.0562360056      -22.5664450387  MEMB      62              0.0000000000
      8190        62  POPC      H15C          -16.7268996360      -20.1857973401      -21.3791431181  MEMB      62              0.0000000000
      8191        62  POPC      C11           -19.0858058810      -20.3275720916      -18.2422642982  MEMB      62              0.0000000000
      8192        62  POPC      H11A          -18.5546478984      -19.7379181307      -17.4647680380  MEMB      62              0.0000000000
      8193        62  POPC      H11B          -19.1189547728      -21.4230572684      -18.0602358236  MEMB      62              0.0000000000
      8194        62  POPC      P             -21.4603688456      -20.0706481057      -17.2721157065  MEMB      62              0.0000000000
      8195        62  POPC      O13           -21.4264363653      -21.4980577252      -16.8377624465  MEMB      62              0.0000000000
      8196        62  POPC      O14           -22.7238176201      -19.5140382204      -17.9086743388  MEMB      62              0.0000000000
      8197        62  POPC      O12           -20.3515907241      -19.8209953923      -18.3977570209  MEMB      62              0.0000000000
      8198        62  POPC      O11           -20.9736687134      -19.1308042170      -16.0851501673  MEMB      62              0.0000000000
      8199        62  POPC      C1            -20.8905286258      -17.7246259793      -16.4160111800  MEMB      62              0.0000000000
      8200        62  POPC      HA            -21.4822171572      -17.4159321477      -17.3042305677  MEMB      62              0.0000000000
      8201        62  POPC      HB            -19.8722050510      -17.3742410145      -16.6890833204  MEMB      62              0.0000000000
      8202        62  POPC      C2            -21.3790672753      -16.8093654399      -15.2082565452  MEMB      62              0.0000000000
      8203        62  POPC      HS            -21.2281483672      -15.7497297131      -15.5061103197  MEMB      62              0.0000000000
      8204        62  POPC      O21           -20.5407732288      -17.0702066593      -14.0306837754  MEMB      62              0.0000000000
      8205        62  POPC      C21           -20.4848054532      -16.2566792706      -12.9919182623  MEMB      62              0.0000000000
      8206        62  POPC      O22           -21.0614209782      -15.1970201251      -12.8701518201  MEMB      62              0.0000000000
      8207        62  POPC      C22           -19.6425128708      -16.9374889677      -11.9257096680  MEMB      62              0.0000000000
      8208        62  POPC      H2R           -18.5827767623      -16.8605353492      -12.2502994348  MEMB      62              0.0000000000
      8209        62  POPC      H2S           -19.8587056846      -18.0269059434      -11.9531348254  MEMB      62              0.0000000000
      8210        62  POPC      C3            -22.8645519461      -17.0312456385      -14.8127064167  MEMB      62              0.0000000000
      8211        62  POPC      HX            -23.4529348934      -16.7184593448      -15.7016893960  MEMB      62              0.0000000000
      8212        62  POPC      HY            -23.0907729138      -16.2228547452      -14.0849362747  MEMB      62              0.0000000000
      8213        62  POPC      O31           -23.1254713136      -18.3933371836      -14.4590179284  MEMB      62              0.0000000000
      8214        62  POPC      C31           -24.3064627510      -18.8437533326      -14.6043356763  MEMB      62              0.0000000000
      8215        62  POPC      O32           -25.2898158572      -18.1912075983      -14.9365319316  MEMB      62              0.0000000000
      8216        62  POPC      C32           -24.4981548650      -20.3421636123      -14.3687670833  MEMB      62              0.0000000000
      8217        62  POPC      H2X           -23.5167746475      -20.8278690949      -14.5566614969  MEMB      62              0.0000000000
      8218        62  POPC      H2Y           -25.2970939106      -20.6684534836      -15.0684474903  MEMB      62              0.0000000000
      8219        62  POPC      C23           -19.7646923781      -16.2644471567      -10.6084808061  MEMB      62              0.0000000000
      8220        62  POPC      H3R           -20.8312749595      -16.3710256871      -10.3163105882  MEMB      62              0.0000000000
      8221        62  POPC      H3S           -19.5885641422      -15.1852715495      -10.8051511398  MEMB      62              0.0000000000
      8222        62  POPC      C24           -18.8228235324      -16.7637905340       -9.4494741178  MEMB      62              0.0000000000
      8223        62  POPC      H4R           -17.8824245395      -16.9505887057      -10.0107916300  MEMB      62              0.0000000000
      8224        62  POPC      H4S           -19.1245501042      -17.7458870185       -9.0266637350  MEMB      62              0.0000000000
      8225        62  POPC      C25           -18.7809771638      -15.7347633330       -8.2648939107  MEMB      62              0.0000000000
      8226        62  POPC      H5R           -19.7913425830      -15.5925089140       -7.8252952772  MEMB      62              0.0000000000
      8227        62  POPC      H5S           -18.3455095780      -14.7820412471       -8.6350415000  MEMB      62              0.0000000000
      8228        62  POPC      C26           -17.7536178657      -16.2272866050       -7.1639545967  MEMB      62              0.0000000000
      8229        62  POPC      H6R           -17.8009014059      -15.4297059143       -6.3919759023  MEMB      62              0.0000000000
      8230        62  POPC      H6S           -16.7294829776      -16.1356789641       -7.5847599972  MEMB      62              0.0000000000
      8231        62  POPC      C27           -17.9871129975      -17.6089931054       -6.5477696584  MEMB      62              0.0000000000
      8232        62  POPC      H7R           -17.2817851733      -17.7900795724       -5.7086973887  MEMB      62              0.0000000000
      8233        62  POPC      H7S           -17.7791633294      -18.3917829842       -7.3082416658  MEMB      62              0.0000000000
      8234        62  POPC      C28           -19.4805703829      -17.8052948197       -6.0523691221  MEMB      62              0.0000000000
      8235        62  POPC      H8R           -19.5075565014      -18.7689667452       -5.5001650153  MEMB      62              0.0000000000
      8236        62  POPC      H8S           -20.1174815465      -17.7863282451       -6.9624817368  MEMB      62              0.0000000000
      8237        62  POPC      C29           -19.9723656096      -16.7400758434       -5.1474353772  MEMB      62              0.0000000000
      8238        62  POPC      H91           -20.5545822939      -15.9690272135       -5.6732757037  MEMB      62              0.0000000000
      8239        62  POPC      C210          -19.6963410426      -16.6011331957       -3.8196501842  MEMB      62              0.0000000000
      8240        62  POPC      H101          -20.0425083995      -15.6833163973       -3.3218743337  MEMB      62              0.0000000000
      8241        62  POPC      C211          -18.8308791359      -17.5464248596       -2.9828582359  MEMB      62              0.0000000000
      8242        62  POPC      H11R          -18.5425572161      -18.4487786776       -3.5633311036  MEMB      62              0.0000000000
      8243        62  POPC      H11S          -19.3025731708      -17.9028930971       -2.0422435861  MEMB      62              0.0000000000
      8244        62  POPC      C212          -17.4002276104      -17.0281632474       -2.6690062767  MEMB      62              0.0000000000
      8245        62  POPC      H12R          -16.8242784470      -16.8867314809       -3.6084756235  MEMB      62              0.0000000000
      8246        62  POPC      H12S          -16.7712847229      -17.8178296276       -2.2051326189  MEMB      62              0.0000000000
      8247        62  POPC      C213          -17.5148195064      -15.7365237526       -1.8206356368  MEMB      62              0.0000000000
      8248        62  POPC      H13R          -17.9160909484      -14.8360889954       -2.3330022183  MEMB      62              0.0000000000
      8249        62  POPC      H13S          -16.4743355895      -15.4158915486       -1.5994821919  MEMB      62              0.0000000000
      8250        62  POPC      C214          -18.5281397016      -15.9891685529       -0.6778842667  MEMB      62              0.0000000000
      8251        62  POPC      H14R          -18.4019956673      -16.9665761670       -0.1649684217  MEMB      62              0.0000000000
      8252        62  POPC      H14S          -19.5746104264      -15.9147379703       -1.0435069531  MEMB      62              0.0000000000
      8253        62  POPC      C215          -18.2370144340      -14.9843102989        0.4463410137  MEMB      62              0.0000000000
      8254        62  POPC      H15R          -17.1707042686      -15.1041601664        0.7343316989  MEMB      62              0.0000000000
      8255        62  POPC      H15S          -18.8305048483      -15.3050906614        1.3290585291  MEMB      62              0.0000000000
      8256        62  POPC      C216          -18.4939695599      -13.5309734727        0.1759533797  MEMB      62              0.0000000000
      8257        62  POPC      H16R          -18.2161587561      -13.2691861849       -0.8674106206  MEMB      62              0.0000000000
      8258        62  POPC      H16S          -17.7286496654      -13.0332614620        0.8091124773  MEMB      62              0.0000000000
      8259        62  POPC      C217          -19.8781892019      -12.9992410640        0.5639751082  MEMB      62              0.0000000000
      8260        62  POPC      H17R          -19.8627174104      -11.9048529883        0.3731971344  MEMB      62              0.0000000000
      8261        62  POPC      H17S          -20.0223898392      -13.3575231348        1.6056856449  MEMB      62              0.0000000000
      8262        62  POPC      C218          -21.0549773989      -13.4869799909       -0.3090019808  MEMB      62              0.0000000000
      8263        62  POPC      H18R          -20.7752657634      -13.4212908314       -1.3822064448  MEMB      62              0.0000000000
      8264        62  POPC      H18S          -21.9966864699      -12.9611757099       -0.0424778987  MEMB      62              0.0000000000
      8265        62  POPC      H18T          -21.1449242956      -14.5830887307       -0.1515979878  MEMB      62              0.0000000000
      8266        62  POPC      C33           -25.0335580598      -20.4057295764      -12.8930464707  MEMB      62              0.0000000000
      8267        62  POPC      H3X           -25.3808895115      -21.4485822011      -12.7313661289  MEMB      62              0.0000000000
      8268        62  POPC      H3Y           -25.9890350309      -19.8395903953      -12.8635385040  MEMB      62              0.0000000000
      8269        62  POPC      C34           -24.0965618231      -20.1705208327      -11.7251518250  MEMB      62              0.0000000000
      8270        62  POPC      H4X           -23.7354243235      -19.1252324568      -11.6189786408  MEMB      62              0.0000000000
      8271        62  POPC      H4Y           -23.2232767124      -20.7994708944      -12.0010434299  MEMB      62              0.0000000000
      8272        62  POPC      C35           -24.6833828058      -20.5946003981      -10.3144004155  MEMB      62              0.0000000000
      8273        62  POPC      H5X           -24.7043602614      -21.7041043102      -10.3680889585  MEMB      62              0.0000000000
      8274        62  POPC      H5Y           -25.6626258701      -20.1566317297      -10.0252855823  MEMB      62              0.0000000000
      8275        62  POPC      C36           -23.6579070709      -20.1499058212       -9.2510858543  MEMB      62              0.0000000000
      8276        62  POPC      H6X           -23.4580329545      -19.0661167481       -9.3917008371  MEMB      62              0.0000000000
      8277        62  POPC      H6Y           -22.7439402114      -20.6767120433       -9.5995980516  MEMB      62              0.0000000000
      8278        62  POPC      C37           -23.9672000686      -20.4668353482       -7.7366910933  MEMB      62              0.0000000000
      8279        62  POPC      H7X           -24.4761855781      -21.4533158659       -7.6907503664  MEMB      62              0.0000000000
      8280        62  POPC      H7Y           -24.6948049849      -19.7453520868       -7.3073028315  MEMB      62              0.0000000000
      8281        62  POPC      C38           -22.7846963104      -20.7235375349       -6.8562723851  MEMB      62              0.0000000000
      8282        62  POPC      H8X           -22.1490606592      -19.8230848894       -6.7167248765  MEMB      62              0.0000000000
      8283        62  POPC      H8Y           -22.0091280688      -21.3306972925       -7.3702488549  MEMB      62              0.0000000000
      8284        62  POPC      C39           -23.1717191588      -21.4440868907       -5.5255708742  MEMB      62              0.0000000000
      8285        62  POPC      H9X           -23.2800446230      -22.5272216263       -5.7478449857  MEMB      62              0.0000000000
      8286        62  POPC      H9Y           -24.1890687831      -21.1791547106       -5.1662217868  MEMB      62              0.0000000000
      8287        62  POPC      C310          -22.0895324139      -21.2707250960       -4.3816776250  MEMB      62              0.0000000000
      8288        62  POPC      H10X          -21.0869891880      -21.1761667009       -4.8510243238  MEMB      62              0.0000000000
      8289        62  POPC      H10Y          -22.0066691855      -22.1953304793       -3.7713011505  MEMB      62              0.0000000000
      8290        62  POPC      C311          -22.3166692975      -20.0743153722       -3.5358612621  MEMB      62              0.0000000000
      8291        62  POPC      H11X          -23.3002350647      -20.0967741697       -3.0197063677  MEMB      62              0.0000000000
      8292        62  POPC      H11Y          -22.1504805866      -19.2256156708       -4.2332927205  MEMB      62              0.0000000000
      8293        62  POPC      C312          -21.3706051838      -19.9300504589       -2.2380411513  MEMB      62              0.0000000000
      8294        62  POPC      H12X          -21.5064948320      -18.9249780634       -1.7845159150  MEMB      62              0.0000000000
      8295        62  POPC      H12Y          -20.3421304348      -20.0986775209       -2.6229114113  MEMB      62              0.0000000000
      8296        62  POPC      C313          -21.7184806565      -20.9446812472       -1.1749868077  MEMB      62              0.0000000000
      8297        62  POPC      H13X          -21.6128959679      -21.9565686969       -1.6213680662  MEMB      62              0.0000000000
      8298        62  POPC      H13Y          -22.7722716375      -20.7654571944       -0.8721267323  MEMB      62              0.0000000000
      8299        62  POPC      C314          -20.8347845185      -21.0019048837        0.0964248223  MEMB      62              0.0000000000
      8300        62  POPC      H14X          -21.1089610417      -21.9709810718        0.5655090034  MEMB      62              0.0000000000
      8301        62  POPC      H14Y          -21.2195851115      -20.1581632223        0.7082658497  MEMB      62              0.0000000000
      8302        62  POPC      C315          -19.3353322684      -20.9057774522       -0.1170509962  MEMB      62              0.0000000000
      8303        62  POPC      H15X          -19.1585747995      -20.1275420005       -0.8899847723  MEMB      62              0.0000000000
      8304        62  POPC      H15Y          -19.0508150667      -21.8500052449       -0.6287181625  MEMB      62              0.0000000000
      8305        62  POPC      C316          -18.3595611279      -20.6321321417        1.0317440166  MEMB      62              0.0000000000
      8306        62  POPC      H16X          -17.3304516635      -20.3768847478        0.6999268728  MEMB      62              0.0000000000
      8307        62  POPC      H16Y          -18.4529695293      -21.4355650632        1.7933811483  MEMB      62              0.0000000000
      8308        62  POPC      H16Z          -18.5826646475      -19.6755496230        1.5508742849  MEMB      62              0.0000000000
      8309        63  POPC      N             -21.2343108693       19.3103249520      -19.2983783491  MEMB      63              0.0000000000
      8310        63  POPC      C12           -22.7737534335       19.1454261135      -19.1030481224  MEMB      63              0.0000000000
      8311        63  POPC      H12A          -23.3028943683       20.0589582448      -19.3307958547  MEMB      63              0.0000000000
      8312        63  POPC      H12B          -22.8673221825       18.9069656559      -18.0538667810  MEMB      63              0.0000000000
      8313        63  POPC      C13           -20.3782938103       18.2344924359      -18.6570845123  MEMB      63              0.0000000000
      8314        63  POPC      H13A          -20.1826366311       18.4319188731      -17.6134653118  MEMB      63              0.0000000000
      8315        63  POPC      H13B          -20.7068504515       17.2468716490      -18.9452785055  MEMB      63              0.0000000000
      8316        63  POPC      H13C          -19.3977931174       18.3337119998      -19.0988691325  MEMB      63              0.0000000000
      8317        63  POPC      C14           -20.8210682042       19.4039160028      -20.7322446345  MEMB      63              0.0000000000
      8318        63  POPC      H14A          -19.7841857289       19.6861594802      -20.6244801576  MEMB      63              0.0000000000
      8319        63  POPC      H14B          -21.0724967103       18.5769722445      -21.3798153541  MEMB      63              0.0000000000
      8320        63  POPC      H14C          -21.3138434418       20.2706586229      -21.1473705536  MEMB      63              0.0000000000
      8321        63  POPC      C15           -20.8689991733       20.6658261562      -18.7483042661  MEMB      63              0.0000000000
      8322        63  POPC      H15A          -19.8165606905       20.6396937712      -18.5072849344  MEMB      63              0.0000000000
      8323        63  POPC      H15B          -21.4754595974       20.9641241923      -17.9059124462  MEMB      63              0.0000000000
      8324        63  POPC      H15C          -21.1268274837       21.3627178946      -19.5320557626  MEMB      63              0.0000000000
      8325        63  POPC      C11           -23.4619708963       18.0545128979      -19.9192671527  MEMB      63              0.0000000000
      8326        63  POPC      H11A          -23.1852177557       18.2103963427      -20.9838933892  MEMB      63              0.0000000000
      8327        63  POPC      H11B          -24.5514526659       18.2342782705      -19.7966504467  MEMB      63              0.0000000000
      8328        63  POPC      P             -23.6273388982       15.8978920358      -18.5020385526  MEMB      63              0.0000000000
      8329        63  POPC      O13           -22.5345896879       14.8979649546      -18.1576534593  MEMB      63              0.0000000000
      8330        63  POPC      O14           -24.9442452463       15.3617741699      -18.9298045230  MEMB      63              0.0000000000
      8331        63  POPC      O12           -23.0736671751       16.8019913279      -19.5958120610  MEMB      63              0.0000000000
      8332        63  POPC      O11           -23.8818241055       16.8738599529      -17.3563643655  MEMB      63              0.0000000000
      8333        63  POPC      C1            -25.0761764128       16.7959183412      -16.5535457142  MEMB      63              0.0000000000
      8334        63  POPC      HA            -25.4043822598       15.7582310996      -16.3303704582  MEMB      63              0.0000000000
      8335        63  POPC      HB            -25.8280167688       17.4603450633      -17.0306141343  MEMB      63              0.0000000000
      8336        63  POPC      C2            -24.7118087474       17.4560150268      -15.1880942318  MEMB      63              0.0000000000
      8337        63  POPC      HS            -24.4527101852       18.5346018652      -15.2500561107  MEMB      63              0.0000000000
      8338        63  POPC      O21           -23.6929718688       16.6580793783      -14.5675649397  MEMB      63              0.0000000000
      8339        63  POPC      C21           -22.4081229815       17.0546718708      -14.6655895301  MEMB      63              0.0000000000
      8340        63  POPC      O22           -22.0241790593       18.0229080247      -15.2865690674  MEMB      63              0.0000000000
      8341        63  POPC      C22           -21.4853732700       15.9049248070      -14.2302065305  MEMB      63              0.0000000000
      8342        63  POPC      H2R           -20.6654590437       15.8138205399      -14.9743580876  MEMB      63              0.0000000000
      8343        63  POPC      H2S           -22.0372747393       14.9451699433      -14.3229230142  MEMB      63              0.0000000000
      8344        63  POPC      C3            -25.9556684211       17.5402653921      -14.3011170762  MEMB      63              0.0000000000
      8345        63  POPC      HX            -26.4837101998       16.5632311028      -14.2711713227  MEMB      63              0.0000000000
      8346        63  POPC      HY            -26.6782409134       18.2535740909      -14.7521170157  MEMB      63              0.0000000000
      8347        63  POPC      O31           -25.5835287743       18.0883939648      -13.0540665049  MEMB      63              0.0000000000
      8348        63  POPC      C31           -26.0073448317       17.4849738158      -11.9815666295  MEMB      63              0.0000000000
      8349        63  POPC      O32           -26.7479261243       16.5187833327      -11.8906288915  MEMB      63              0.0000000000
      8350        63  POPC      C32           -25.5305542578       18.3306375003      -10.7414182918  MEMB      63              0.0000000000
      8351        63  POPC      H2X           -26.2460255870       18.2295204812       -9.8975005937  MEMB      63              0.0000000000
      8352        63  POPC      H2Y           -25.4284806418       19.4248617435      -10.9044376423  MEMB      63              0.0000000000
      8353        63  POPC      C23           -21.0640896969       16.1389136232      -12.7320366064  MEMB      63              0.0000000000
      8354        63  POPC      H3R           -21.8768413343       16.4816381832      -12.0565404144  MEMB      63              0.0000000000
      8355        63  POPC      H3S           -20.3067845759       16.9501154892      -12.6794861168  MEMB      63              0.0000000000
      8356        63  POPC      C24           -20.5044303953       14.8009938370      -12.1082921673  MEMB      63              0.0000000000
      8357        63  POPC      H4R           -19.4201674415       14.8409234792      -12.3472493151  MEMB      63              0.0000000000
      8358        63  POPC      H4S           -20.9711143392       13.9227427727      -12.6034711826  MEMB      63              0.0000000000
      8359        63  POPC      C25           -20.7554932793       14.6903461139      -10.6252127469  MEMB      63              0.0000000000
      8360        63  POPC      H5R           -20.6545775155       15.6469429827      -10.0692807347  MEMB      63              0.0000000000
      8361        63  POPC      H5S           -20.0105604173       13.9728542860      -10.2195009557  MEMB      63              0.0000000000
      8362        63  POPC      C26           -22.1479684280       14.0169101138      -10.3746260133  MEMB      63              0.0000000000
      8363        63  POPC      H6R           -22.2176638260       13.1767600887      -11.0982360885  MEMB      63              0.0000000000
      8364        63  POPC      H6S           -22.9523113762       14.7606880968      -10.5594173527  MEMB      63              0.0000000000
      8365        63  POPC      C27           -22.2031904349       13.5772573035       -8.8666506152  MEMB      63              0.0000000000
      8366        63  POPC      H7R           -21.9577126962       14.4289062418       -8.1967582394  MEMB      63              0.0000000000
      8367        63  POPC      H7S           -21.4405071739       12.7699255484       -8.8374802438  MEMB      63              0.0000000000
      8368        63  POPC      C28           -23.5095237663       12.8722938532       -8.4507881007  MEMB      63              0.0000000000
      8369        63  POPC      H8R           -23.4883367673       12.3550217837       -7.4677818440  MEMB      63              0.0000000000
      8370        63  POPC      H8S           -23.6382921723       12.0810290899       -9.2199693817  MEMB      63              0.0000000000
      8371        63  POPC      C29           -24.5067174031       14.0328248427       -8.4688758513  MEMB      63              0.0000000000
      8372        63  POPC      H91           -24.9286631902       14.2576253635       -9.4595450019  MEMB      63              0.0000000000
      8373        63  POPC      C210          -25.0294015218       14.6615651514       -7.3676017779  MEMB      63              0.0000000000
      8374        63  POPC      H101          -25.7095289248       15.5045346173       -7.5595099229  MEMB      63              0.0000000000
      8375        63  POPC      C211          -24.8258186870       14.3991285805       -5.9282754829  MEMB      63              0.0000000000
      8376        63  POPC      H11R          -24.5270148209       13.3459128140       -5.7391352443  MEMB      63              0.0000000000
      8377        63  POPC      H11S          -25.7912749852       14.6827688331       -5.4573575510  MEMB      63              0.0000000000
      8378        63  POPC      C212          -23.7945545450       15.4114190735       -5.4344971356  MEMB      63              0.0000000000
      8379        63  POPC      H12R          -24.0592575707       16.4636278517       -5.6734738975  MEMB      63              0.0000000000
      8380        63  POPC      H12S          -22.8121120097       15.1801343410       -5.8988618166  MEMB      63              0.0000000000
      8381        63  POPC      C213          -23.6365414159       15.2731640061       -3.8685322243  MEMB      63              0.0000000000
      8382        63  POPC      H13R          -22.9544164990       16.0893645646       -3.5478408704  MEMB      63              0.0000000000
      8383        63  POPC      H13S          -23.1880978000       14.2973975833       -3.5837527242  MEMB      63              0.0000000000
      8384        63  POPC      C214          -24.9382862532       15.3870235486       -3.0904014795  MEMB      63              0.0000000000
      8385        63  POPC      H14R          -25.6125276133       14.5723799036       -3.4311001174  MEMB      63              0.0000000000
      8386        63  POPC      H14S          -25.5790049794       16.1684511060       -3.5521066039  MEMB      63              0.0000000000
      8387        63  POPC      C215          -24.9354762065       15.5806159739       -1.5633769702  MEMB      63              0.0000000000
      8388        63  POPC      H15R          -25.9788089705       15.6099976177       -1.1827025431  MEMB      63              0.0000000000
      8389        63  POPC      H15S          -24.3761571022       16.4976524610       -1.2796047941  MEMB      63              0.0000000000
      8390        63  POPC      C216          -24.3358890272       14.3613686944       -0.8048243684  MEMB      63              0.0000000000
      8391        63  POPC      H16R          -23.2913299662       14.1985995081       -1.1464729810  MEMB      63              0.0000000000
      8392        63  POPC      H16S          -24.9185861740       13.4233495631       -0.9269115778  MEMB      63              0.0000000000
      8393        63  POPC      C217          -24.2940910677       14.5729761421        0.7390318574  MEMB      63              0.0000000000
      8394        63  POPC      H17R          -25.2969837539       14.5944591126        1.2165927486  MEMB      63              0.0000000000
      8395        63  POPC      H17S          -23.8345958186       15.5763312527        0.8673417322  MEMB      63              0.0000000000
      8396        63  POPC      C218          -23.3472279070       13.5599903442        1.3573951368  MEMB      63              0.0000000000
      8397        63  POPC      H18R          -22.9232268381       13.8259124079        2.3492780847  MEMB      63              0.0000000000
      8398        63  POPC      H18S          -22.5788788391       13.3967055643        0.5717123240  MEMB      63              0.0000000000
      8399        63  POPC      H18T          -23.9341007513       12.6301015966        1.5161664674  MEMB      63              0.0000000000
      8400        63  POPC      C33           -24.0766701806       17.9781789994      -10.3774104331  MEMB      63              0.0000000000
      8401        63  POPC      H3X           -23.4079593743       18.2703523072      -11.2151338520  MEMB      63              0.0000000000
      8402        63  POPC      H3Y           -24.0270457598       16.8752692877      -10.2531169480  MEMB      63              0.0000000000
      8403        63  POPC      C34           -23.4577379160       18.6851586747       -9.1750415363  MEMB      63              0.0000000000
      8404        63  POPC      H4X           -24.0793935076       18.4014039028       -8.2990574777  MEMB      63              0.0000000000
      8405        63  POPC      H4Y           -23.4436274645       19.7939337351       -9.1061954132  MEMB      63              0.0000000000
      8406        63  POPC      C35           -22.0189896813       18.2089270556       -8.7832539220  MEMB      63              0.0000000000
      8407        63  POPC      H5X           -21.3436565480       18.7142154043       -9.5063918400  MEMB      63              0.0000000000
      8408        63  POPC      H5Y           -21.9353120365       17.1278906935       -9.0254924226  MEMB      63              0.0000000000
      8409        63  POPC      C36           -21.7081225793       18.3019548538       -7.2942528175  MEMB      63              0.0000000000
      8410        63  POPC      H6X           -20.6474335031       18.0699332990       -7.0588265656  MEMB      63              0.0000000000
      8411        63  POPC      H6Y           -22.3487774445       17.5062895919       -6.8574477610  MEMB      63              0.0000000000
      8412        63  POPC      C37           -22.0322311870       19.7444825321       -6.8830756510  MEMB      63              0.0000000000
      8413        63  POPC      H7X           -23.0818218804       20.0994570284       -6.9647656159  MEMB      63              0.0000000000
      8414        63  POPC      H7Y           -21.5283873718       20.4740368684       -7.5525632040  MEMB      63              0.0000000000
      8415        63  POPC      C38           -21.5393110647       20.0712872985       -5.5036991173  MEMB      63              0.0000000000
      8416        63  POPC      H8X           -21.3987366793       21.1561901253       -5.3099318568  MEMB      63              0.0000000000
      8417        63  POPC      H8Y           -20.5093856562       19.6590150635       -5.4436486352  MEMB      63              0.0000000000
      8418        63  POPC      C39           -22.3851748238       19.7598790767       -4.3068875430  MEMB      63              0.0000000000
      8419        63  POPC      H9X           -22.6218611040       18.6748621083       -4.2746534460  MEMB      63              0.0000000000
      8420        63  POPC      H9Y           -23.3202736142       20.2440007456       -4.6611999763  MEMB      63              0.0000000000
      8421        63  POPC      C310          -21.8472847178       20.3286068979       -2.9762656252  MEMB      63              0.0000000000
      8422        63  POPC      H10X          -22.6624307798       20.3317340242       -2.2213817142  MEMB      63              0.0000000000
      8423        63  POPC      H10Y          -21.5443600717       21.3848390090       -3.1403731118  MEMB      63              0.0000000000
      8424        63  POPC      C311          -20.6970871604       19.6066854808       -2.3510777226  MEMB      63              0.0000000000
      8425        63  POPC      H11X          -19.8207317237       19.8320320503       -2.9957025853  MEMB      63              0.0000000000
      8426        63  POPC      H11Y          -20.8170537032       18.5121531933       -2.4991588578  MEMB      63              0.0000000000
      8427        63  POPC      C312          -20.3579577275       20.0378420229       -0.9667763568  MEMB      63              0.0000000000
      8428        63  POPC      H12X          -20.5012452089       21.1315634447       -0.8342515801  MEMB      63              0.0000000000
      8429        63  POPC      H12Y          -19.2598305806       19.8937589647       -0.8791568260  MEMB      63              0.0000000000
      8430        63  POPC      C313          -20.8382851910       19.1975434068        0.1534056516  MEMB      63              0.0000000000
      8431        63  POPC      H13X          -20.3003410287       19.4327662411        1.0965960043  MEMB      63              0.0000000000
      8432        63  POPC      H13Y          -20.7699726575       18.1213752698       -0.1140195112  MEMB      63              0.0000000000
      8433        63  POPC      C314          -22.3169578217       19.2749513439        0.4278806439  MEMB      63              0.0000000000
      8434        63  POPC      H14X          -22.8147751371       19.0364279694       -0.5362802380  MEMB      63              0.0000000000
      8435        63  POPC      H14Y          -22.5168518820       20.3480251961        0.6349434729  MEMB      63              0.0000000000
      8436        63  POPC      C315          -22.8934833868       18.4999616204        1.6725068581  MEMB      63              0.0000000000
      8437        63  POPC      H15X          -22.7696728984       17.4068619305        1.5171853265  MEMB      63              0.0000000000
      8438        63  POPC      H15Y          -23.9747850378       18.6787013151        1.8546049790  MEMB      63              0.0000000000
      8439        63  POPC      C316          -22.1785468590       18.8673852092        2.9995185773  MEMB      63              0.0000000000
      8440        63  POPC      H16X          -21.1494040412       18.4649515396        3.1145550892  MEMB      63              0.0000000000
      8441        63  POPC      H16Y          -22.8195600642       18.5265993301        3.8405236015  MEMB      63              0.0000000000
      8442        63  POPC      H16Z          -22.0195009323       19.9236863609        3.3048937561  MEMB      63              0.0000000000
      8443        64  POPC      N              19.5721716777      -24.0011754814      -20.6191622268  MEMB      64              0.0000000000
      8444        64  POPC      C12            19.7234063093      -24.0135902056      -19.1430241137  MEMB      64              0.0000000000
      8445        64  POPC      H12A           20.6898700175      -23.5910358119      -18.9110851567  MEMB      64              0.0000000000
      8446        64  POPC      H12B           19.6662015500      -25.0636998993      -18.8972661147  MEMB      64              0.0000000000
      8447        64  POPC      C13            18.1369154657      -24.2810685912      -20.8812544862  MEMB      64              0.0000000000
      8448        64  POPC      H13A           17.6531408309      -23.3898202168      -20.5097194233  MEMB      64              0.0000000000
      8449        64  POPC      H13B           17.9563795574      -24.3391328502      -21.9444737127  MEMB      64              0.0000000000
      8450        64  POPC      H13C           17.7596981978      -25.1442939776      -20.3530977939  MEMB      64              0.0000000000
      8451        64  POPC      C14            19.8929653834      -22.7245992842      -21.3520635273  MEMB      64              0.0000000000
      8452        64  POPC      H14A           19.4131385822      -21.9088939969      -20.8316876680  MEMB      64              0.0000000000
      8453        64  POPC      H14B           20.9621683246      -22.5760142933      -21.3184844237  MEMB      64              0.0000000000
      8454        64  POPC      H14C           19.4680071956      -22.8136391561      -22.3409430782  MEMB      64              0.0000000000
      8455        64  POPC      C15            20.4828946598      -25.0890281446      -21.1660861465  MEMB      64              0.0000000000
      8456        64  POPC      H15A           20.2053624628      -26.0202046151      -20.6946137147  MEMB      64              0.0000000000
      8457        64  POPC      H15B           21.4978233691      -24.9227184534      -20.8364489990  MEMB      64              0.0000000000
      8458        64  POPC      H15C           20.2939526192      -25.0959362611      -22.2294078760  MEMB      64              0.0000000000
      8459        64  POPC      C11            18.7211937770      -23.2119630640      -18.3040287986  MEMB      64              0.0000000000
      8460        64  POPC      H11A           19.0740060284      -23.5026222473      -17.2914272540  MEMB      64              0.0000000000
      8461        64  POPC      H11B           17.6691171356      -23.5450305596      -18.4325654299  MEMB      64              0.0000000000
      8462        64  POPC      P              18.4846073507      -20.7717269718      -17.5012308697  MEMB      64              0.0000000000
      8463        64  POPC      O13            17.3822131056      -21.3063341973      -16.6146542977  MEMB      64              0.0000000000
      8464        64  POPC      O14            18.3357860687      -19.4630707862      -18.1173698569  MEMB      64              0.0000000000
      8465        64  POPC      O12            18.6777357032      -21.8117368365      -18.6566995360  MEMB      64              0.0000000000
      8466        64  POPC      O11            19.7741243739      -20.8127569821      -16.6444261250  MEMB      64              0.0000000000
      8467        64  POPC      C1             20.9923131520      -21.0778326308      -17.4243120213  MEMB      64              0.0000000000
      8468        64  POPC      HA             21.1672579499      -20.3893508372      -18.2785416486  MEMB      64              0.0000000000
      8469        64  POPC      HB             21.1171514663      -22.1194225367      -17.7901357012  MEMB      64              0.0000000000
      8470        64  POPC      C2             22.2058884611      -20.9353064134      -16.4817785880  MEMB      64              0.0000000000
      8471        64  POPC      HS             23.0979243927      -21.4265805915      -16.9258982027  MEMB      64              0.0000000000
      8472        64  POPC      O21            22.0700253377      -21.2765974655      -15.1146937230  MEMB      64              0.0000000000
      8473        64  POPC      C21            21.9891390195      -22.5874489845      -14.9187129377  MEMB      64              0.0000000000
      8474        64  POPC      O22            22.2719058565      -23.4181795822      -15.7157016208  MEMB      64              0.0000000000
      8475        64  POPC      C22            21.5234227036      -22.8811273342      -13.4839675091  MEMB      64              0.0000000000
      8476        64  POPC      H2R            20.8636395780      -23.7730830668      -13.4254686841  MEMB      64              0.0000000000
      8477        64  POPC      H2S            20.8532840788      -22.0409083040      -13.2024231828  MEMB      64              0.0000000000
      8478        64  POPC      C3             22.5414228781      -19.4414301954      -16.4269575173  MEMB      64              0.0000000000
      8479        64  POPC      HX             23.0570590333      -19.1196333848      -17.3569506899  MEMB      64              0.0000000000
      8480        64  POPC      HY             23.3198177759      -19.3172889958      -15.6440071596  MEMB      64              0.0000000000
      8481        64  POPC      O31            21.3480397608      -18.7204180381      -16.0584703263  MEMB      64              0.0000000000
      8482        64  POPC      C31            21.1105137296      -17.5989160862      -16.7040725251  MEMB      64              0.0000000000
      8483        64  POPC      O32            21.7714315826      -17.1896478130      -17.6475463334  MEMB      64              0.0000000000
      8484        64  POPC      C32            19.7998149272      -17.0356656164      -16.2398906619  MEMB      64              0.0000000000
      8485        64  POPC      H2X            19.0797466045      -17.7279458771      -16.7262763481  MEMB      64              0.0000000000
      8486        64  POPC      H2Y            19.4743176521      -16.0304614292      -16.5833097081  MEMB      64              0.0000000000
      8487        64  POPC      C23            22.6874082265      -22.8269773379      -12.4311899824  MEMB      64              0.0000000000
      8488        64  POPC      H3R            23.1988387278      -21.8501877375      -12.5677254357  MEMB      64              0.0000000000
      8489        64  POPC      H3S            23.3808759315      -23.6874952188      -12.5449096679  MEMB      64              0.0000000000
      8490        64  POPC      C24            22.1742784266      -22.7445512258      -10.9533129843  MEMB      64              0.0000000000
      8491        64  POPC      H4R            21.1026474436      -22.4595974944      -10.8845433716  MEMB      64              0.0000000000
      8492        64  POPC      H4S            22.7067319167      -21.9335241293      -10.4119724175  MEMB      64              0.0000000000
      8493        64  POPC      C25            22.4379015218      -24.0950275774      -10.2509363241  MEMB      64              0.0000000000
      8494        64  POPC      H5R            23.3183372307      -24.6105390488      -10.6907117111  MEMB      64              0.0000000000
      8495        64  POPC      H5S            21.5550217292      -24.7235773862      -10.4954136598  MEMB      64              0.0000000000
      8496        64  POPC      C26            22.4162994104      -23.9667261569       -8.7097403039  MEMB      64              0.0000000000
      8497        64  POPC      H6R            21.4115274273      -23.5902907327       -8.4215545446  MEMB      64              0.0000000000
      8498        64  POPC      H6S            23.2281068499      -23.3088932121       -8.3321880322  MEMB      64              0.0000000000
      8499        64  POPC      C27            22.5726662822      -25.4372381233       -8.1291258531  MEMB      64              0.0000000000
      8500        64  POPC      H7R            23.4229555819      -25.9141836979       -8.6619033289  MEMB      64              0.0000000000
      8501        64  POPC      H7S            21.6632373348      -25.9952156534       -8.4388368906  MEMB      64              0.0000000000
      8502        64  POPC      C28            22.9581954787      -25.5737911247       -6.6206380530  MEMB      64              0.0000000000
      8503        64  POPC      H8R            23.9335657700      -25.0752865756       -6.4349842714  MEMB      64              0.0000000000
      8504        64  POPC      H8S            23.1455169458      -26.6496802318       -6.4164466749  MEMB      64              0.0000000000
      8505        64  POPC      C29            22.0429703539      -24.9834431760       -5.5328590777  MEMB      64              0.0000000000
      8506        64  POPC      H91            21.8581953720      -23.8991011748       -5.5406394573  MEMB      64              0.0000000000
      8507        64  POPC      C210           21.6241549375      -25.7450970668       -4.5211595759  MEMB      64              0.0000000000
      8508        64  POPC      H101           20.8339450261      -25.2852723201       -3.9094979120  MEMB      64              0.0000000000
      8509        64  POPC      C211           21.9008596245      -27.1928047198       -4.1007852324  MEMB      64              0.0000000000
      8510        64  POPC      H11R           22.2231263254      -27.8868527329       -4.9062432417  MEMB      64              0.0000000000
      8511        64  POPC      H11S           20.9853097570      -27.5960281001       -3.6175665939  MEMB      64              0.0000000000
      8512        64  POPC      C212           23.1299595746      -27.2829143346       -3.1013310710  MEMB      64              0.0000000000
      8513        64  POPC      H12R           24.0439662819      -26.9561550142       -3.6418311659  MEMB      64              0.0000000000
      8514        64  POPC      H12S           23.3771603202      -28.3355907561       -2.8462112539  MEMB      64              0.0000000000
      8515        64  POPC      C213           22.7662024885      -26.5322290571       -1.8134569562  MEMB      64              0.0000000000
      8516        64  POPC      H13R           22.7683330920      -25.4427371552       -2.0309969580  MEMB      64              0.0000000000
      8517        64  POPC      H13S           23.6829194964      -26.6630018458       -1.1995768689  MEMB      64              0.0000000000
      8518        64  POPC      C214           21.4695882884      -26.9174041777       -1.1429669363  MEMB      64              0.0000000000
      8519        64  POPC      H14R           21.5006019266      -27.9670619766       -0.7802304038  MEMB      64              0.0000000000
      8520        64  POPC      H14S           20.6049114343      -26.8882255438       -1.8399629998  MEMB      64              0.0000000000
      8521        64  POPC      C215           21.0929455829      -26.0048486705        0.0151341641  MEMB      64              0.0000000000
      8522        64  POPC      H15R           21.0092416701      -24.9377662140       -0.2826086542  MEMB      64              0.0000000000
      8523        64  POPC      H15S           22.0204036073      -25.9679444522        0.6256904553  MEMB      64              0.0000000000
      8524        64  POPC      C216           19.8633001489      -26.4998581721        0.8120827437  MEMB      64              0.0000000000
      8525        64  POPC      H16R           20.1125743514      -26.3104154559        1.8780523515  MEMB      64              0.0000000000
      8526        64  POPC      H16S           19.5859512292      -27.5726552442        0.7314331398  MEMB      64              0.0000000000
      8527        64  POPC      C217           18.5302896871      -25.6662346459        0.5347014555  MEMB      64              0.0000000000
      8528        64  POPC      H17R           18.2498052753      -25.8318165801       -0.5274821749  MEMB      64              0.0000000000
      8529        64  POPC      H17S           18.8115276352      -24.5936173698        0.4660073115  MEMB      64              0.0000000000
      8530        64  POPC      C218           17.1998138030      -25.6999693566        1.4238513935  MEMB      64              0.0000000000
      8531        64  POPC      H18R           17.4543870161      -25.3765422476        2.4557941177  MEMB      64              0.0000000000
      8532        64  POPC      H18S           16.7828472899      -26.7274413381        1.3548489898  MEMB      64              0.0000000000
      8533        64  POPC      H18T           16.3856016523      -25.0208249534        1.0919736482  MEMB      64              0.0000000000
      8534        64  POPC      C33            19.7304025946      -17.0384165458      -14.6548391341  MEMB      64              0.0000000000
      8535        64  POPC      H3X            20.3034800613      -16.1884756431      -14.2264663118  MEMB      64              0.0000000000
      8536        64  POPC      H3Y            20.1411602580      -17.9986534659      -14.2759659727  MEMB      64              0.0000000000
      8537        64  POPC      C34            18.2784261908      -16.9736267808      -14.2346187967  MEMB      64              0.0000000000
      8538        64  POPC      H4X            17.8291831912      -16.2221538860      -14.9185713270  MEMB      64              0.0000000000
      8539        64  POPC      H4Y            18.1609939063      -16.5437790279      -13.2168954078  MEMB      64              0.0000000000
      8540        64  POPC      C35            17.4462859781      -18.1820132139      -14.2998001419  MEMB      64              0.0000000000
      8541        64  POPC      H5X            17.7731031134      -18.8955768029      -15.0861455343  MEMB      64              0.0000000000
      8542        64  POPC      H5Y            16.3815589364      -17.9636865156      -14.5300400395  MEMB      64              0.0000000000
      8543        64  POPC      C36            17.5377284349      -18.9494469404      -12.9272278232  MEMB      64              0.0000000000
      8544        64  POPC      H6X            16.5552280072      -19.3904753222      -12.6542671674  MEMB      64              0.0000000000
      8545        64  POPC      H6Y            17.8651937179      -18.3509152566      -12.0503887049  MEMB      64              0.0000000000
      8546        64  POPC      C37            18.4372011548      -20.2380566783      -12.9413504427  MEMB      64              0.0000000000
      8547        64  POPC      H7X            19.4348973751      -19.9289706730      -13.3200175727  MEMB      64              0.0000000000
      8548        64  POPC      H7Y            18.0170605006      -20.8658949743      -13.7559803192  MEMB      64              0.0000000000
      8549        64  POPC      C38            18.3744941495      -20.9990666975      -11.5625729849  MEMB      64              0.0000000000
      8550        64  POPC      H8X            18.7985003375      -22.0081108486      -11.7532809821  MEMB      64              0.0000000000
      8551        64  POPC      H8Y            17.3611957444      -21.2282679858      -11.1688548218  MEMB      64              0.0000000000
      8552        64  POPC      C39            19.1998620281      -20.3264836236      -10.4089416743  MEMB      64              0.0000000000
      8553        64  POPC      H9X            19.2346932110      -19.2574379535      -10.7093573030  MEMB      64              0.0000000000
      8554        64  POPC      H9Y            20.3008425474      -20.4746675647      -10.4232326865  MEMB      64              0.0000000000
      8555        64  POPC      C310           18.7325325270      -20.6710852084       -8.9474293425  MEMB      64              0.0000000000
      8556        64  POPC      H10X           18.0608649779      -21.5557266505       -8.9230737927  MEMB      64              0.0000000000
      8557        64  POPC      H10Y           18.0809650202      -19.8003547882       -8.7202522145  MEMB      64              0.0000000000
      8558        64  POPC      C311           19.8468615986      -21.0071852510       -7.8763476851  MEMB      64              0.0000000000
      8559        64  POPC      H11X           20.4735705940      -20.0903180833       -7.8461546094  MEMB      64              0.0000000000
      8560        64  POPC      H11Y           20.5392432163      -21.7725504707       -8.2876196176  MEMB      64              0.0000000000
      8561        64  POPC      C312           19.4205782794      -21.4881128870       -6.5339755104  MEMB      64              0.0000000000
      8562        64  POPC      H12X           18.8499727460      -20.6939622348       -6.0066664118  MEMB      64              0.0000000000
      8563        64  POPC      H12Y           20.3977904540      -21.5941335172       -6.0161564755  MEMB      64              0.0000000000
      8564        64  POPC      C313           18.8578416330      -22.9197308323       -6.5309877614  MEMB      64              0.0000000000
      8565        64  POPC      H13X           19.3485856995      -23.6110131796       -7.2490546465  MEMB      64              0.0000000000
      8566        64  POPC      H13Y           17.8022787473      -22.9619015799       -6.8749780947  MEMB      64              0.0000000000
      8567        64  POPC      C314           18.9640874995      -23.6313094223       -5.1487725598  MEMB      64              0.0000000000
      8568        64  POPC      H14X           19.9006291943      -23.3069612336       -4.6467680158  MEMB      64              0.0000000000
      8569        64  POPC      H14Y           19.0278092416      -24.7300576850       -5.3004722622  MEMB      64              0.0000000000
      8570        64  POPC      C315           17.7971054718      -23.1939602085       -4.2268827966  MEMB      64              0.0000000000
      8571        64  POPC      H15X           16.9107687962      -23.1412008984       -4.8946737966  MEMB      64              0.0000000000
      8572        64  POPC      H15Y           18.0321350392      -22.2025328482       -3.7839899777  MEMB      64              0.0000000000
      8573        64  POPC      C316           17.5041269626      -24.1066521723       -3.0793522704  MEMB      64              0.0000000000
      8574        64  POPC      H16X           18.4011385558      -24.1607403768       -2.4260787293  MEMB      64              0.0000000000
      8575        64  POPC      H16Y           17.3168551440      -25.1442876782       -3.4294423826  MEMB      64              0.0000000000
      8576        64  POPC      H16Z           16.7007901085      -23.6979629231       -2.4297796887  MEMB      64              0.0000000000
