* GENERATED BY CHARMM-GUI (HTTP://WWW.CHARMM-GUI.ORG) V3.7 ON OCT, 25. 2022. JOB
* GENERATES ION CONFORMATION USING MONTE-CARLO SIMULATION
*  DATE:    10/25/22     16:32: 6      CREATED BY USER: apache
*
        36  EXT
         1         1  POT       POT           -22.8272377000       11.0008252000       61.1811028000  IONS      1               1.0000000000
         2         2  POT       POT            14.8192653000      -13.2534872000       65.8091989000  IONS      2               1.0000000000
         3         3  POT       POT           -10.1762530000       15.7698369000      -71.1661456000  IONS      3               1.0000000000
         4         4  POT       POT            20.2612186000        2.4342190500      -48.7263922000  IONS      4               1.0000000000
         5         5  POT       POT           -22.4488095000        6.4153490400      -37.3859803000  IONS      5               1.0000000000
         6         6  POT       POT            -1.0855018200      -10.5968211000       25.6258490000  IONS      6               1.0000000000
         7         7  POT       POT            13.2143700000       -5.7612392600       52.7369985000  IONS      7               1.0000000000
         8         8  POT       POT            11.3226256000       -2.2188520600      -63.6659649000  IONS      8               1.0000000000
         9         9  POT       POT           -16.8216178000      -19.2842052000       37.7183985000  IONS      9               1.0000000000
        10        10  POT       POT             0.6448348740        0.8571287260       65.5604225000  IONS      10              1.0000000000
        11        11  POT       POT            12.8379410000      -22.2423559000       39.3272683000  IONS      11              1.0000000000
        12        12  POT       POT            -8.1192240200      -21.6758126000      -26.6517559000  IONS      12              1.0000000000
        13        13  POT       POT            -8.2201967500       12.3113278000      -31.9481074000  IONS      13              1.0000000000
        14        14  POT       POT             4.7880348500      -14.5982244000      -24.6851128000  IONS      14              1.0000000000
        15        15  POT       POT           -16.7749823000       -4.5329977600      -46.6334388000  IONS      15              1.0000000000
        16        16  POT       POT            -1.5370494000       18.1488105000       23.2035510000  IONS      16              1.0000000000
        17        17  POT       POT           -19.6411756950       -2.7124610326       39.5706952364  IONS      17              1.0000000000
        18        18  POT       POT           -10.3427409000       -0.2197927560      -59.7616045000  IONS      18              1.0000000000
        19        19  CLA       CLA            10.4633296000       -2.9495626600       31.7481390000  IONS      19             -1.0000000000
        20        20  CLA       CLA           -22.4284768000       10.8562377000      -21.7197908000  IONS      20             -1.0000000000
        21        21  CLA       CLA           -12.1032191000       -6.5310454800       55.5470256000  IONS      21             -1.0000000000
        22        22  CLA       CLA             2.0780425184       -7.0125583991      -65.7657287961  IONS      22             -1.0000000000
        23        23  CLA       CLA            11.7236517000       -1.2371809700      -49.9399906000  IONS      23             -1.0000000000
        24        24  CLA       CLA            -9.2031946200       -0.3988562360      -44.9811318000  IONS      24             -1.0000000000
        25        25  CLA       CLA             3.7385101300        9.1803161900      -27.7789663000  IONS      25             -1.0000000000
        26        26  CLA       CLA            18.9441896000       12.0374311000       60.1379586000  IONS      26             -1.0000000000
        27        27  CLA       CLA             4.7286020548       -9.0989668685       50.9335483125  IONS      27             -1.0000000000
        28        28  CLA       CLA            -5.8353271900      -16.3619315000      -30.5044592000  IONS      28             -1.0000000000
        29        29  CLA       CLA            13.9025175000      -13.9262219000       48.8318150000  IONS      29             -1.0000000000
        30        30  CLA       CLA            16.8773495000      -22.8588761000       66.9854309000  IONS      30             -1.0000000000
        31        31  CLA       CLA           -17.5319506000      -20.9595191000      -61.5363000000  IONS      31             -1.0000000000
        32        32  CLA       CLA           -22.1965050000      -17.6383748000       63.9699539000  IONS      32             -1.0000000000
        33        33  CLA       CLA            -9.8483130800        1.9979345400      -71.7780192000  IONS      33             -1.0000000000
        34        34  CLA       CLA            13.3870906000        0.7242026560       37.0450795000  IONS      34             -1.0000000000
        35        35  CLA       CLA           -23.2847510000        4.6003612500      -23.2708344000  IONS      35             -1.0000000000
        36        36  CLA       CLA            12.7474270000       -5.8721344300       71.7216178000  IONS      36             -1.0000000000
